----- GAMESS execution script 'rungms' -----
This job is running on host gwang18-p3
under operating system Linux at 2020年 05月 31日 星期日 21:08:34 EDT
Available scratch disk space (Kbyte units) at beginning of the job is
Filesystem     1K-blocks      Used Available Use% Mounted on
/dev/sda6      216112148 162740628  42370536  80% /
GAMESS temporary binary files will be written to /home/gwang18/research/projects/si_gap/sih4/cis/pbe/qz/cis/30orb
GAMESS supplementary output files will be written to /home/gwang18/research/projects/si_gap/sih4/cis/pbe/qz/cis/30orb
Copying input file ci.inp to your run's scratch directory...

 Distributed Data Interface kickoff program.
 Initiating 1 compute processes on 1 nodes to run the following command:
 /home/gwang18/software/gamess/gamess.00.x ci 

          ******************************************************
          *         GAMESS VERSION =  5 DEC 2014 (R1)          *
          *             FROM IOWA STATE UNIVERSITY             *
          * M.W.SCHMIDT, K.K.BALDRIDGE, J.A.BOATZ, S.T.ELBERT, *
          *   M.S.GORDON, J.H.JENSEN, S.KOSEKI, N.MATSUNAGA,   *
          *          K.A.NGUYEN, S.J.SU, T.L.WINDUS,           *
          *       TOGETHER WITH M.DUPUIS, J.A.MONTGOMERY       *
          *         J.COMPUT.CHEM.  14, 1347-1363(1993)        *
          **************** 64 BIT LINUX VERSION ****************

  SINCE 1993, STUDENTS AND POSTDOCS WORKING AT IOWA STATE UNIVERSITY
  AND ALSO IN THEIR VARIOUS JOBS AFTER LEAVING ISU HAVE MADE IMPORTANT
  CONTRIBUTIONS TO THE CODE:
     IVANA ADAMOVIC, CHRISTINE AIKENS, YURI ALEXEEV, POOJA ARORA,
     ANDREY ASADCHEV, ROB BELL, PRADIPTA BANDYOPADHYAY, JONATHAN BENTZ,
     BRETT BODE, KURT BRORSEN, CALEB CARLIN, GALINA CHABAN, WEI CHEN,
     CHEOL HO CHOI, PAUL DAY, ALBERT DEFUSCO, NUWAN DESILVA, TIM DUDLEY,
     DMITRI FEDOROV, GRAHAM FLETCHER, MARK FREITAG, KURT GLAESEMANN,
     DAN KEMP, GRANT MERRILL, NORIYUKI MINEZAWA, JONATHAN MULLIN,
     TAKESHI NAGATA, SEAN NEDD, HEATHER NETZLOFF, BOSILJKA NJEGIC, RYAN OLSON,
     MIKE PAK, SPENCER PRUITT, LUKE ROSKOP, JIM SHOEMAKER, LYUDMILA SLIPCHENKO,
     TONY SMITH, SAROM SOK, JIE SONG, TETSUYA TAKETSUGU, SIMON WEBB,
     PENG XU, SOOHAENG YOO, FEDERICO ZAHARIEV

  ADDITIONAL CODE HAS BEEN PROVIDED BY COLLABORATORS IN OTHER GROUPS:
     IOWA STATE UNIVERSITY:
          JOE IVANIC, AARON WEST, LAIMUTIS BYTAUTAS, KLAUS RUEDENBERG
     UNIVERSITY OF TOKYO: KIMIHIKO HIRAO, TAKAHITO NAKAJIMA,
          TAKAO TSUNEDA, MUNEAKI KAMIYA, SUSUMU YANAGISAWA,
          KIYOSHI YAGI, MAHITO CHIBA, SEIKEN TOKURA, NAOAKI KAWAKAMI
     UNIVERSITY OF AARHUS: FRANK JENSEN
     UNIVERSITY OF IOWA: VISVALDAS KAIRYS, HUI LI
     NATIONAL INST. OF STANDARDS AND TECHNOLOGY: WALT STEVENS, DAVID GARMER
     UNIVERSITY OF PISA: BENEDETTA MENNUCCI, JACOPO TOMASI
     UNIVERSITY OF MEMPHIS: HENRY KURTZ, PRAKASHAN KORAMBATH
     UNIVERSITY OF ALBERTA: TOBY ZENG, MARIUSZ KLOBUKOWSKI
     UNIVERSITY OF NEW ENGLAND: MARK SPACKMAN
     MIE UNIVERSITY: HIROAKI UMEDA
     NAT. INST. OF ADVANCED INDUSTRIAL SCIENCE AND TECHNOLOGY: KAZUO KITAURA
     MICHIGAN STATE UNIVERSITY:
          KAROL KOWALSKI, MARTA WLOCH, JEFFREY GOUR, JESSE LUTZ,
          WEI LI, PIOTR PIECUCH
     UNIVERSITY OF SILESIA: MONIKA MUSIAL, STANISLAW KUCHARSKI
     FACULTES UNIVERSITAIRES NOTRE-DAME DE LA PAIX:
          OLIVIER QUINET, BENOIT CHAMPAGNE
     UNIVERSITY OF CALIFORNIA - SANTA BARBARA: BERNARD KIRTMAN
     INSTITUTE FOR MOLECULAR SCIENCE:
          KAZUYA ISHIMURA, MICHIO KATOUDA, AND SHIGERU NAGASE
     UNIVERSITY OF NOTRE DAME: ANNA POMOGAEVA, DAN CHIPMAN
     KYUSHU UNIVERSITY:
          HARUYUKI NAKANO,
          FENG LONG GU, JACEK KORCHOWIEC, MARCIN MAKOWSKI, AND YURIKO AOKI,
          HIROTOSHI MORI AND EISAKU MIYOSHI
     PENNSYLVANIA STATE UNIVERSITY:
          TZVETELIN IORDANOV, CHET SWALINA, JONATHAN SKONE,
          SHARON HAMMES-SCHIFFER
     WASEDA UNIVERSITY:
          MASATO KOBAYASHI, TOMOKO AKAMA, TSUGUKI TOUMA,
          TAKESHI YOSHIKAWA, YASUHIRO IKABATA, HIROMI NAKAI
     NANJING UNIVERSITY: SHUHUA LI
     UNIVERSITY OF NEBRASKA:
          PEIFENG SU, DEJUN SI, NANDUN THELLAMUREGE, YALI WANG, HUI LI
     UNIVERSITY OF ZURICH: ROBERTO PEVERATI, KIM BALDRIDGE
     N. COPERNICUS UNIVERSITY AND JACKSON STATE UNIVERSITY:
          MARIA BARYSZ
     UNIVERSITY OF COPENHAGEN: CASPER STEINMANN
     TOKYO INSTITUTE OF TECHNOLOGY: HIROYA NAKATA
     NAGOYA UNIVERSITY: YOSHIO NISHIMOTO, STEPHAN IRLE

 EXECUTION OF GAMESS BEGUN Sun May 31 21:08:34 2020

            ECHO OF THE FIRST FEW INPUT CARDS -
 INPUT CARD> $CONTRL                                                                        
 INPUT CARD>     CITYP=GUGA                                                                 
 INPUT CARD>     SCFTYP=NONE                                                                
 INPUT CARD>     MULT=1                                                                     
 INPUT CARD>     ICHARG=0                                                                   
 INPUT CARD>     RUNTYP=energy                                                              
 INPUT CARD>     MAXIT=100                                                                  
 INPUT CARD>     PP=READ                                                                    
 INPUT CARD>     UNITS=ANGS                                                                 
 INPUT CARD>     QMTTOL=1.0E-06                                                             
 INPUT CARD> $END                                                                           
 INPUT CARD>                                                                                
 INPUT CARD> $SYSTEM                                                                        
 INPUT CARD>    MWORDS=1000                                                                 
 INPUT CARD>    MEMDDI=1000                                                                 
 INPUT CARD> $END                                                                           
 INPUT CARD>                                                                                
 INPUT CARD> $GUESS                                                                         
 INPUT CARD>     GUESS=MOREAD                                                               
 INPUT CARD>     NORB=40                                                                    
 INPUT CARD>     PUNMO=.T.                                                                  
 INPUT CARD>     PRTMO=.T.                                                                  
 INPUT CARD>!     GUESS=HUCKEL                                                              
 INPUT CARD> $END                                                                           
 INPUT CARD>                                                                                
 INPUT CARD>! $SCF DAMP=.T. SOSCF=.F. SHIFT=.T. RSTRCT=.T. DIIS=.T.  $end                   
 INPUT CARD>                                                                                
 INPUT CARD>                                                                                
 INPUT CARD>! $MCSCF                                                                        
 INPUT CARD>!      CISTEP=GUGA                                                              
 INPUT CARD>! $END                                                                          
 INPUT CARD>                                                                                
 INPUT CARD> $CIDRT                                                                         
 INPUT CARD>      NPRT=2                                                                    
 INPUT CARD>      NFZC=0                                                                    
 INPUT CARD>      NDOC=4                                                                    
 INPUT CARD> !     NAOS=1                                                                   
 INPUT CARD> !     NBOS=1                                                                   
 INPUT CARD>      NVAL=20                                                                   
 INPUT CARD>      IEXCIT=2                                                                  
 INPUT CARD>      GROUP=C1                                                                  
 INPUT CARD> $END                                                                           
 INPUT CARD>                                                                                
 INPUT CARD> $GUGDIA NSTATE=2 $END                                                          
 INPUT CARD>                                                                                
 INPUT CARD> $GUGDM NFLGDM(1)=0,1 IROOT=2 $END                                              
 INPUT CARD>                                                                                
 INPUT CARD>! $CIS                                                                          
 INPUT CARD>!      HAMTYP=SAPS MULT=1 NACORE=0 NSTATE=1 IROOT=1                             
 INPUT CARD>! $END                                                                          
 1000000000 WORDS OF MEMORY AVAILABLE


     RUN TITLE
     ---------
 Silane CIS calculation                                                          

 THE POINT GROUP OF THE MOLECULE IS C1      
 THE ORDER OF THE PRINCIPAL AXIS IS     0
 *** WARNING! ATOM   1 SHELL    5 TYPE P HAS NORMALIZATION   0.99999860

 ATOM      ATOMIC                      COORDINATES (BOHR)
           CHARGE         X                   Y                   Z
 SI         14.0     0.0000000000        0.0000000000        0.0000000000
 H           1.0     1.6145818839        1.6145818839        1.6145818839
 H           1.0    -1.6145818839       -1.6145818839        1.6145818839
 H           1.0    -1.6145818839        1.6145818839       -1.6145818839
 H           1.0     1.6145818839       -1.6145818839       -1.6145818839

          INTERNUCLEAR DISTANCES (ANGS.)
          ------------------------------

                1 SI         2 H          3 H          4 H          5 H     

   1 SI      0.0000000    1.4798642 *  1.4798642 *  1.4798642 *  1.4798642 *
   2 H       1.4798642 *  0.0000000    2.4166081 *  2.4166081 *  2.4166081 *
   3 H       1.4798642 *  2.4166081 *  0.0000000    2.4166081 *  2.4166081 *
   4 H       1.4798642 *  2.4166081 *  2.4166081 *  0.0000000    2.4166081 *
   5 H       1.4798642 *  2.4166081 *  2.4166081 *  2.4166081 *  0.0000000  

  * ... LESS THAN  3.000


     ATOMIC BASIS SET
     ----------------
 THE CONTRACTED PRIMITIVE FUNCTIONS HAVE BEEN UNNORMALIZED
 THE CONTRACTED BASIS FUNCTIONS ARE NOW NORMALIZED TO UNITY

  SHELL TYPE  PRIMITIVE        EXPONENT          CONTRACTION COEFFICIENT(S)

 SI        

      1   S       1             9.9982740    0.002893997896
      1   S       2             5.5176440   -0.014522989441
      1   S       3             3.0449650    0.077633943557
      1   S       4             1.6803930   -0.224021837126
      1   S       5             0.9273410   -0.149079891612
      1   S       6             0.5117620    0.085943937515
      1   S       7             0.2824210    0.355393741613
      1   S       8             0.1558570    0.445218676307
      1   S       9             0.0860110    0.267229805712
      1   S      10             0.0474660    0.060786955805

      2   S      11             0.4885040    1.000000000000

      3   S      12             0.1994570    1.000000000000

      4   S      13             0.0814390    1.000000000000

      5   P      14             5.0278680   -0.003241995466
      5   P      15             2.8677510    0.010648985106
      5   P      16             1.6356830   -0.049760930401
      5   P      17             0.9329470   -0.000016999976
      5   P      18             0.5321260    0.106059851657
      5   P      19             0.3035090    0.236201669632
      5   P      20             0.1731130    0.310664565483
      5   P      21             0.0987390    0.294695587818
      5   P      22             0.0563180    0.153897784748
      5   P      23             0.0321220    0.042336940785

      6   P      24             1.2257900    1.000000000000

      7   P      25             0.5013640    1.000000000000

      8   P      26             0.2050640    1.000000000000

      9   D      27             0.9970030    1.000000000000

     10   D      28             0.3659420    1.000000000000

     11   D      29             0.1343160    1.000000000000

     12   F      30             0.5491160    1.000000000000

     13   F      31             0.2149980    1.000000000000

     14   G      32             0.4595470    1.000000000000

 H         

     15   S      33            23.8431850    0.004114899701
     15   S      34            10.2124430    0.010464399240
     15   S      35             4.3741640    0.028011097966
     15   S      36             1.8735290    0.075886194491
     15   S      37             0.8024650    0.182106186780
     15   S      38             0.3437090    0.348521374698
     15   S      39             0.1472170    0.378231272542
     15   S      40             0.0630550    0.116424091548

     16   S      41             0.0818560    1.000000000000

     17   S      42             0.2332540    1.000000000000

     18   S      43             0.6646730    1.000000000000

     19   P      44             0.2844690    1.000000000000

     20   P      45             0.8471590    1.000000000000

     21   P      46             2.5228680    1.000000000000

     22   D      47             0.6652790    1.000000000000

     23   D      48             2.0487390    1.000000000000

     24   F      49             1.4214600    1.000000000000

 H         

     25   S      50            23.8431850    0.004114899701
     25   S      51            10.2124430    0.010464399240
     25   S      52             4.3741640    0.028011097966
     25   S      53             1.8735290    0.075886194491
     25   S      54             0.8024650    0.182106186780
     25   S      55             0.3437090    0.348521374698
     25   S      56             0.1472170    0.378231272542
     25   S      57             0.0630550    0.116424091548

     26   S      58             0.0818560    1.000000000000

     27   S      59             0.2332540    1.000000000000

     28   S      60             0.6646730    1.000000000000

     29   P      61             0.2844690    1.000000000000

     30   P      62             0.8471590    1.000000000000

     31   P      63             2.5228680    1.000000000000

     32   D      64             0.6652790    1.000000000000

     33   D      65             2.0487390    1.000000000000

     34   F      66             1.4214600    1.000000000000

 H         

     35   S      67            23.8431850    0.004114899701
     35   S      68            10.2124430    0.010464399240
     35   S      69             4.3741640    0.028011097966
     35   S      70             1.8735290    0.075886194491
     35   S      71             0.8024650    0.182106186780
     35   S      72             0.3437090    0.348521374698
     35   S      73             0.1472170    0.378231272542
     35   S      74             0.0630550    0.116424091548

     36   S      75             0.0818560    1.000000000000

     37   S      76             0.2332540    1.000000000000

     38   S      77             0.6646730    1.000000000000

     39   P      78             0.2844690    1.000000000000

     40   P      79             0.8471590    1.000000000000

     41   P      80             2.5228680    1.000000000000

     42   D      81             0.6652790    1.000000000000

     43   D      82             2.0487390    1.000000000000

     44   F      83             1.4214600    1.000000000000

 H         

     45   S      84            23.8431850    0.004114899701
     45   S      85            10.2124430    0.010464399240
     45   S      86             4.3741640    0.028011097966
     45   S      87             1.8735290    0.075886194491
     45   S      88             0.8024650    0.182106186780
     45   S      89             0.3437090    0.348521374698
     45   S      90             0.1472170    0.378231272542
     45   S      91             0.0630550    0.116424091548

     46   S      92             0.0818560    1.000000000000

     47   S      93             0.2332540    1.000000000000

     48   S      94             0.6646730    1.000000000000

     49   P      95             0.2844690    1.000000000000

     50   P      96             0.8471590    1.000000000000

     51   P      97             2.5228680    1.000000000000

     52   D      98             0.6652790    1.000000000000

     53   D      99             2.0487390    1.000000000000

     54   F     100             1.4214600    1.000000000000

 TOTAL NUMBER OF BASIS SET SHELLS             =   54
 NUMBER OF CARTESIAN GAUSSIAN BASIS FUNCTIONS =  209
 NUMBER OF ELECTRONS                          =   18
 CHARGE OF MOLECULE                           =    0
 SPIN MULTIPLICITY                            =    1
 NUMBER OF OCCUPIED ORBITALS (ALPHA)          =    9
 NUMBER OF OCCUPIED ORBITALS (BETA )          =    9
 TOTAL NUMBER OF ATOMS                        =    5
 THE NUCLEAR REPULSION ENERGY IS       21.3386114148
 NOTE THIS RUN IS USING CORE POTENTIALS, AND THE NUMBER OF ELECTRONS,
 OCCUPIED ORBITALS, AND NUCLEAR REPULSION ENERGY WILL BE ADJUSTED BELOW
 AFTER REMOVAL OF THE CORE CHARGES.

     $CONTRL OPTIONS
     ---------------
 SCFTYP=NONE         RUNTYP=ENERGY       EXETYP=RUN     
 MPLEVL=       0     CITYP =GUGA         CCTYP =NONE         VBTYP =NONE    
 DFTTYP=NONE         TDDFT =NONE    
 MULT  =       1     ICHARG=       0     NZVAR =       0     COORD =UNIQUE  
 PP    =READ         RELWFN=NONE         LOCAL =NONE         NUMGRD=       F
 ISPHER=      -1     NOSYM =       0     MAXIT =     100     UNITS =ANGS    
 PLTORB=       F     MOLPLT=       F     AIMPAC=       F     FRIEND=        
 NPRINT=       7     IREST =       0     GEOM  =INPUT   
 NORMF =       0     NORMP =       0     ITOL  =      20     ICUT  =       9
 INTTYP=BEST         GRDTYP=BEST         QMTTOL= 1.0E-06

     $SYSTEM OPTIONS
     ---------------
  REPLICATED MEMORY=  1000000000 WORDS (ON EVERY NODE).
 DISTRIBUTED MEMDDI=        1000 MILLION WORDS IN AGGREGATE,
 MEMDDI DISTRIBUTED OVER   1 PROCESSORS IS  1000000000 WORDS/PROCESSOR.
 TOTAL MEMORY REQUESTED ON EACH PROCESSOR=  2000000000 WORDS.
 TIMLIM=      525600.00 MINUTES, OR     365.0 DAYS.
 PARALL= F  BALTYP=  DLB     KDIAG=    0  COREFL= F
 MXSEQ2=     300 MXSEQ3=     150  mem10=         0

          --------------
          ECP POTENTIALS
          --------------

 PARAMETERS FOR "SI-CCECP" ON ATOM    1 WITH ZCORE  10 AND LMAX  2 ARE
 FOR L= 2      COEFF    N           ZETA
    1        4.00000    1        5.16832
    2       20.67326    3        8.86169
    3      -14.81817    2        3.93347
 FOR L= 0      COEFF    N           ZETA
    1       14.83276    2        9.44702
    2       26.34966    2        2.55381
 FOR L= 1      COEFF    N           ZETA
    1        7.62140    2        3.66000
    2       10.33158    2        1.90365

 PARAMETERS FOR "H-CCECP " ON ATOM    2 WITH ZCORE   0 AND LMAX  1 ARE
 FOR L= 1      COEFF    N           ZETA
    1        1.00000    1       21.24360
    2       21.24360    3       21.24360
    3      -10.85192    2       21.77697
 FOR L= 0      COEFF    N           ZETA
    1        0.00000    2        1.00000

 PARAMETERS FOR "H-CCECP " ON ATOM    3 ARE THE SAME AS ATOM   2

 PARAMETERS FOR "H-CCECP " ON ATOM    4 ARE THE SAME AS ATOM   2

 PARAMETERS FOR "H-CCECP " ON ATOM    5 ARE THE SAME AS ATOM   2

 THE ECP RUN REMOVES   10 CORE ELECTRONS, AND THE SAME NUMBER OF PROTONS.
 NUMBER OF ELECTRONS KEPT IN THE CALCULATION IS =    8
 NUMBER OF OCCUPIED ORBITALS (ALPHA) KEPT IS    =    4
 NUMBER OF OCCUPIED ORBITALS (BETA ) KEPT IS    =    4
 THE ADJUSTED NUCLEAR REPULSION ENERGY=        7.0352112604
          ECP ANGULAR INTS.........     0.02 SECONDS

          ----------------
          PROPERTIES INPUT
          ----------------

     MOMENTS            FIELD           POTENTIAL          DENSITY
 IEMOM =       1   IEFLD =       0   IEPOT =       0   IEDEN =       0
 WHERE =COMASS     WHERE =NUCLEI     WHERE =NUCLEI     WHERE =NUCLEI  
 OUTPUT=BOTH       OUTPUT=BOTH       OUTPUT=BOTH       OUTPUT=BOTH    
 IEMINT=       0   IEFINT=       0                     IEDINT=       0
                                                       MORB  =       0
          EXTRAPOLATION IN EFFECT
          SOSCF IN EFFECT
 ORBITAL PRINTING OPTION: NPREO=     1   209     2     1

     -------------------------------
     INTEGRAL TRANSFORMATION OPTIONS
     -------------------------------
     NWORD  =            0
     CUTOFF = 1.0E-09     MPTRAN =       0
     DIRTRF =       F     AOINTS =DUP     

          ----------------------
          INTEGRAL INPUT OPTIONS
          ----------------------
 NOPK  =       1 NORDER=       0 SCHWRZ=       F

     ------------------------------------------
     THE POINT GROUP IS C1 , NAXIS= 0, ORDER= 1
     ------------------------------------------

     DIMENSIONS OF THE SYMMETRY SUBSPACES ARE
 A   =  209

 ..... DONE SETTING UP THE RUN .....
 STEP CPU TIME =     0.21 TOTAL CPU TIME =        0.2 (    0.0 MIN)
 TOTAL WALL CLOCK TIME=        0.4 SECONDS, CPU UTILIZATION IS  55.26%

          ********************
          1 ELECTRON INTEGRALS
          ********************
 TIME TO DO ORDINARY INTEGRALS=      0.00
 TIME TO DO      ECP INTEGRALS=      0.10
 ...... END OF ONE-ELECTRON INTEGRALS ......
 STEP CPU TIME =     0.10 TOTAL CPU TIME =        0.3 (    0.0 MIN)
 TOTAL WALL CLOCK TIME=        0.5 SECONDS, CPU UTILIZATION IS  64.58%

          -------------
          GUESS OPTIONS
          -------------
          GUESS =MOREAD            NORB  =      40          NORDER=       0
          MIX   =       F          PRTMO =       T          PUNMO =       T
          TOLZ  = 1.0E-08          TOLE  = 1.0E-05
          SYMDEN=       F          PURIFY=       F

 INITIAL GUESS ORBITALS GENERATED BY MOREAD   ROUTINE.
 EIGENVALUES ARE DIAGONAL OF 1E- H IN MO BASIS

 SYMMETRIES FOR INITIAL GUESS ORBITALS FOLLOW.   BOTH SET(S).
     4 ORBITALS ARE OCCUPIED (    0 CORE ORBITALS).
     1=A        2=A        3=A        4=A        5=A        6=A        7=A   
     8=A        9=A       10=A       11=A       12=A       13=A       14=A   
    15=A       16=A       17=A       18=A       19=A       20=A       21=A   
    22=A       23=A       24=A       25=A       26=A       27=A       28=A   
    29=A       30=A       31=A       32=A       33=A       34=A       35=A   
    36=A       37=A       38=A       39=A       40=A       41=A       42=A   
    43=A       44=A       45=A       46=A       47=A       48=A       49=A   
    50=A       51=A       52=A       53=A       54=A       55=A       56=A   
    57=A       58=A       59=A       60=A       61=A       62=A       63=A   
    64=A       65=A       66=A       67=A       68=A       69=A       70=A   
    71=A       72=A       73=A       74=A       75=A       76=A       77=A   
    78=A       79=A       80=A       81=A       82=A       83=A       84=A   
    85=A       86=A       87=A       88=A       89=A       90=A       91=A   
    92=A       93=A       94=A       95=A       96=A       97=A       98=A   
    99=A      100=A      101=A      102=A      103=A      104=A      105=A   
   106=A      107=A      108=A      109=A      110=A      111=A      112=A   
   113=A      114=A      115=A      116=A      117=A      118=A      119=A   
   120=A      121=A      122=A      123=A      124=A      125=A      126=A   
   127=A      128=A      129=A      130=A      131=A      132=A      133=A   
   134=A      135=A      136=A      137=A      138=A      139=A      140=A   
   141=A      142=A      143=A      144=A      145=A      146=A      147=A   
   148=A      149=A      150=A      151=A      152=A      153=A      154=A   
   155=A      156=A      157=A      158=A      159=A      160=A      161=A   
   162=A      163=A      164=A      165=A      166=A      167=A      168=A   
   169=A      170=A      171=A      172=A      173=A      174=A      175=A   
   176=A      177=A      178=A      179=A      180=A      181=A      182=A   
   183=A      184=A      185=A      186=A      187=A      188=A      189=A   
   190=A      191=A      192=A      193=A      194=A      195=A      196=A   
   197=A      198=A      199=A      200=A      201=A      202=A      203=A   
   204=A      205=A      206=A      207=A      208=A      209=A   

                              ----------------------
                              INITIAL GUESS ORBITALS
                              ----------------------

                      1          2          3          4          5
                   -2.9881    -2.6500    -2.6500    -2.6500    -1.9661
                     A          A          A          A          A   
    1  SI 1  S    0.960602  -0.000007   0.000008   0.000007   0.000120
    2  SI 1  S    0.097887  -0.000103   0.000113   0.000110   0.000271
    3  SI 1  S   -0.159855   0.000173  -0.000176  -0.000156  -0.000066
    4  SI 1  S   -0.220269   0.000217  -0.000267  -0.000288  -0.000251
    5  SI 1  X    0.000000   0.166265  -0.011463   0.168046   3.971063
    6  SI 1  Y    0.000042  -0.154283  -0.105141   0.145474  -0.191827
    7  SI 1  Z    0.000084  -0.067616   0.211749   0.081343  -0.078484
    8  SI 1  X    0.000000  -0.025040   0.001738  -0.025300   0.217543
    9  SI 1  Y    0.000004   0.023231   0.015832  -0.021904  -0.010509
   10  SI 1  Z    0.000008   0.010171  -0.031881  -0.012256  -0.004306
   11  SI 1  X   -0.000000   0.068070  -0.004728   0.068774  -0.898748
   12  SI 1  Y   -0.000013  -0.063148  -0.043037   0.059542   0.043417
   13  SI 1  Z   -0.000026  -0.027643   0.086661   0.033318   0.017762
   14  SI 1  X   -0.000000   0.119701  -0.008272   0.120975  -1.233245
   15  SI 1  Y    0.000021  -0.111064  -0.075693   0.104728   0.059567
   16  SI 1  Z    0.000042  -0.048657   0.152431   0.058573   0.024292
   17  SI 1 XX   -0.013899  -0.000001   0.000001   0.000001   0.000007
   18  SI 1 YY   -0.013899  -0.000001   0.000001   0.000001   0.000007
   19  SI 1 ZZ   -0.013899  -0.000001   0.000001   0.000001   0.000007
   20  SI 1 XY    0.000002  -0.009551   0.029925   0.011500   0.001278
   21  SI 1 XZ    0.000001  -0.021805  -0.014860   0.020560   0.003130
   22  SI 1 YZ    0.000000   0.023501  -0.001626   0.023749  -0.064767
   23  SI 1 XX    0.001756  -0.000026   0.000029   0.000028   0.000135
   24  SI 1 YY    0.001756  -0.000026   0.000029   0.000028   0.000135
   25  SI 1 ZZ    0.001756  -0.000026   0.000029   0.000028   0.000135
   26  SI 1 XY    0.000010  -0.002528   0.007919   0.003043   0.000426
   27  SI 1 XZ    0.000005  -0.005770  -0.003933   0.005442   0.001120
   28  SI 1 YZ   -0.000000   0.006219  -0.000429   0.006287  -0.023293
   29  SI 1 XX    0.017378  -0.000037   0.000047   0.000052   0.000280
   30  SI 1 YY    0.017378  -0.000037   0.000047   0.000052   0.000280
   31  SI 1 ZZ    0.017378  -0.000037   0.000046   0.000052   0.000280
   32  SI 1 XY    0.000056  -0.005404   0.016861   0.006459   0.000816
   33  SI 1 XZ    0.000028  -0.012282  -0.008369   0.011581   0.002200
   34  SI 1 YZ   -0.000000   0.013225  -0.000888   0.013385  -0.045317
   35  SI 1 XXX  -0.000000  -0.010475   0.000727  -0.010582  -0.038276
   36  SI 1 YYY   0.000003   0.009718   0.006623  -0.009162   0.001848
   37  SI 1 ZZZ   0.000007   0.004255  -0.013337  -0.005127   0.000737
   38  SI 1 XXY   0.000004   0.000434   0.000296  -0.000409   0.000871
   39  SI 1 XXZ   0.000008   0.000188  -0.000595  -0.000230   0.000340
   40  SI 1 YYX  -0.000000  -0.000469   0.000035  -0.000471  -0.018035
   41  SI 1 YYZ   0.000008   0.000188  -0.000595  -0.000230   0.000340
   42  SI 1 ZZX  -0.000000  -0.000469   0.000035  -0.000471  -0.018035
   43  SI 1 ZZY   0.000004   0.000434   0.000296  -0.000409   0.000870
   44  SI 1 XYZ   0.015941   0.000004  -0.000004  -0.000004   0.000006
   45  SI 1 XXX  -0.000000  -0.011892   0.000816  -0.012021  -0.416279
   46  SI 1 YYY  -0.000005   0.011038   0.007521  -0.010406   0.020104
   47  SI 1 ZZZ  -0.000009   0.004841  -0.015149  -0.005816   0.008199
   48  SI 1 XXY   0.000010   0.003299   0.002249  -0.003111   0.007676
   49  SI 1 XXZ   0.000020   0.001438  -0.004527  -0.001746   0.003101
   50  SI 1 YYX  -0.000000  -0.003559   0.000256  -0.003590  -0.158662
   51  SI 1 YYZ   0.000020   0.001438  -0.004527  -0.001746   0.003100
   52  SI 1 ZZX  -0.000000  -0.003560   0.000254  -0.003590  -0.158662
   53  SI 1 ZZY   0.000010   0.003300   0.002249  -0.003110   0.007664
   54  SI 1 XYZ   0.012352   0.000022  -0.000024  -0.000022   0.000011
   55  SI 1XXXX   0.005121  -0.000006   0.000007   0.000006   0.000005
   56  SI 1YYYY   0.005121  -0.000006   0.000007   0.000006   0.000005
   57  SI 1ZZZZ   0.005121  -0.000006   0.000006   0.000007   0.000005
   58  SI 1XXXY   0.000010  -0.004336   0.013574   0.005213   0.000577
   59  SI 1XXXZ   0.000005  -0.009890  -0.006740   0.009325   0.001434
   60  SI 1YYYX   0.000010  -0.004336   0.013574   0.005213   0.000577
   61  SI 1YYYZ  -0.000000   0.010657  -0.000733   0.010773  -0.029554
   62  SI 1ZZZX   0.000005  -0.009890  -0.006740   0.009325   0.001429
   63  SI 1ZZZY  -0.000000   0.010657  -0.000733   0.010773  -0.029554
   64  SI 1XXYY   0.009477   0.000001  -0.000000  -0.000001   0.000006
   65  SI 1XXZZ   0.009477   0.000001  -0.000001  -0.000000   0.000006
   66  SI 1YYZZ   0.009477   0.000001  -0.000001  -0.000000   0.000006
   67  SI 1XXYZ  -0.000000   0.007129  -0.000488   0.007209   0.000831
   68  SI 1YYXZ   0.000006  -0.006617  -0.004509   0.006240  -0.000041
   69  SI 1ZZXY   0.000012  -0.002903   0.009082   0.003486  -0.000028
   70  H  2  S    0.332068  -0.104296   0.178471   0.741241  -0.223621
   71  H  2  S   -0.075041   0.009531  -0.016306  -0.067727  -0.707264
   72  H  2  S   -0.091895   0.015909  -0.027220  -0.113015  -0.012764
   73  H  2  S   -0.023602   0.004000  -0.006846  -0.028439  -0.006896
   74  H  2  X   -0.001632   0.007881  -0.003390  -0.006103   0.044594
   75  H  2  Y   -0.001630  -0.003970  -0.006854  -0.006937  -0.003878
   76  H  2  Z   -0.001628  -0.000766   0.004862  -0.009309  -0.002559
   77  H  2  X   -0.002300   0.003211  -0.002207  -0.006574   0.018480
   78  H  2  Y   -0.002302  -0.000655  -0.003334  -0.006845   0.004965
   79  H  2  Z   -0.002304   0.000392   0.000487  -0.007617   0.005336
   80  H  2  X   -0.000919   0.000566  -0.000210  -0.000272  -0.001515
   81  H  2  Y   -0.000919  -0.000323  -0.000470  -0.000335  -0.002809
   82  H  2  Z   -0.000919  -0.000083   0.000408  -0.000513  -0.002775
   83  H  2 XX    0.000778  -0.001489   0.000895   0.002408  -0.007718
   84  H  2 YY    0.000778   0.000452   0.001461   0.002545  -0.005581
   85  H  2 ZZ    0.000779  -0.000073  -0.000457   0.002933  -0.005640
   86  H  2 XY   -0.000573  -0.000567   0.001503   0.001816  -0.004024
   87  H  2 XZ   -0.000573  -0.001048  -0.000255   0.002171  -0.004026
   88  H  2 YZ   -0.000573   0.000731   0.000265   0.002297  -0.003972
   89  H  2 XX    0.000377  -0.000099   0.000050   0.000115  -0.000593
   90  H  2 YY    0.000377   0.000041   0.000091   0.000125  -0.000522
   91  H  2 ZZ    0.000377   0.000003  -0.000047   0.000153  -0.000524
   92  H  2 XY    0.000153  -0.000062   0.000119   0.000380   0.000290
   93  H  2 XZ    0.000153  -0.000074   0.000074   0.000389   0.000291
   94  H  2 YZ    0.000153  -0.000028   0.000087   0.000393   0.000265
   95  H  2 XXX   0.000141  -0.000140   0.000168   0.000646  -0.003777
   96  H  2 YYY   0.000142  -0.000054   0.000193   0.000652  -0.001934
   97  H  2 ZZZ   0.000142  -0.000078   0.000108   0.000668  -0.001985
   98  H  2 XXY   0.000116   0.000022  -0.000073   0.000071  -0.001025
   99  H  2 XXZ   0.000117   0.000062   0.000072   0.000041  -0.001048
  100  H  2 YYX   0.000116   0.000013  -0.000076   0.000070  -0.002030
  101  H  2 YYZ   0.000117  -0.000095   0.000026   0.000030  -0.001239
  102  H  2 ZZX   0.000116   0.000055   0.000079   0.000039  -0.002024
  103  H  2 ZZY   0.000116  -0.000092   0.000036   0.000028  -0.001211
  104  H  2 XYZ   0.000124   0.000079  -0.000134  -0.000558  -0.000450
  105  H  3  S    0.332068  -0.149376   0.616432  -0.435735   0.232954
  106  H  3  S   -0.075020   0.013640  -0.056315   0.039870   0.736745
  107  H  3  S   -0.091826   0.022759  -0.093955   0.066528   0.013605
  108  H  3  S   -0.023601   0.005729  -0.023650   0.016725   0.007190
  109  H  3  X    0.001646   0.003659   0.009825  -0.001004   0.044568
  110  H  3  Y    0.001648  -0.008191   0.006361  -0.001839  -0.003904
  111  H  3  Z   -0.001642  -0.000012  -0.002420   0.010221   0.000766
  112  H  3  X    0.002312   0.000274   0.007015  -0.003024   0.018751
  113  H  3  Y    0.002310  -0.003592   0.005887  -0.003296   0.005236
  114  H  3  Z   -0.002313   0.000918  -0.004602   0.006034  -0.006119
  115  H  3  X    0.000917   0.000312   0.000582   0.000031  -0.001639
  116  H  3  Y    0.000917  -0.000577   0.000322  -0.000032  -0.002933
  117  H  3  Z   -0.000916  -0.000038  -0.000026   0.000660   0.002850
  118  H  3 XX    0.000780   0.000316   0.002779  -0.000994   0.007945
  119  H  3 YY    0.000779  -0.001625   0.002213  -0.001131   0.005808
  120  H  3 ZZ    0.000780  -0.000282   0.001568  -0.002503   0.005944
  121  H  3 XY   -0.000570  -0.000650   0.002310  -0.000348   0.004201
  122  H  3 XZ    0.000570  -0.000580  -0.001719   0.001606  -0.004202
  123  H  3 YZ    0.000570   0.001198  -0.001200   0.001731  -0.004148
  124  H  3 XX    0.000377   0.000035   0.000151  -0.000038   0.000612
  125  H  3 YY    0.000377  -0.000105   0.000111  -0.000047   0.000541
  126  H  3 ZZ    0.000377  -0.000008   0.000064  -0.000146   0.000546
  127  H  3 XY    0.000153  -0.000084   0.000337  -0.000205  -0.000302
  128  H  3 XZ   -0.000153   0.000052  -0.000321   0.000238   0.000303
  129  H  3 YZ   -0.000153   0.000098  -0.000308   0.000241   0.000278
  130  H  3 XXX  -0.000145   0.000094  -0.000572   0.000360  -0.003876
  131  H  3 YYY  -0.000144   0.000180  -0.000547   0.000366  -0.002033
  132  H  3 ZZZ   0.000145  -0.000121   0.000519  -0.000427   0.002155
  133  H  3 XXY  -0.000118  -0.000006   0.000010   0.000102  -0.001084
  134  H  3 XXZ   0.000118  -0.000096   0.000038   0.000001   0.001137
  135  H  3 YYX  -0.000118  -0.000015   0.000008   0.000102  -0.002088
  136  H  3 YYZ   0.000118   0.000060   0.000084   0.000012   0.001328
  137  H  3 ZZX  -0.000118   0.000093  -0.000044  -0.000009  -0.002076
  138  H  3 ZZY  -0.000117  -0.000054  -0.000087  -0.000019  -0.001262
  139  H  3 XYZ   0.000124   0.000113  -0.000464   0.000328   0.000468
  140  H  4  S    0.332068  -0.474906  -0.573208  -0.195105   0.246657
  141  H  4  S   -0.075000   0.043377   0.052438   0.017856   0.780040
  142  H  4  S   -0.091756   0.072355   0.087502   0.029782   0.014146
  143  H  4  S   -0.023600   0.018219   0.021999   0.007489   0.007629
  144  H  4  X    0.001660  -0.001755  -0.009919   0.002982   0.044421
  145  H  4  Y   -0.001658   0.002198   0.005610   0.008606  -0.000394
  146  H  4  Z    0.001664  -0.010402  -0.001669  -0.000223  -0.002743
  147  H  4  X    0.002322  -0.003510  -0.006787  -0.000238   0.019080
  148  H  4  Y   -0.002323   0.003655   0.005378   0.004020  -0.006813
  149  H  4  Z    0.002320  -0.006329  -0.004092  -0.001282   0.005930
  150  H  4  X    0.000914  -0.000011  -0.000603   0.000272  -0.001804
  151  H  4  Y   -0.000914   0.000044   0.000280   0.000597   0.002980
  152  H  4  Z    0.000915  -0.000659   0.000015   0.000031  -0.003062
  153  H  4 XX    0.000781  -0.001189  -0.002716   0.000116   0.008294
  154  H  4 YY    0.000781  -0.001262  -0.002010  -0.001781   0.006348
  155  H  4 ZZ    0.000781  -0.002604  -0.001365  -0.000408   0.006212
  156  H  4 XY    0.000568   0.000501   0.002227   0.000809  -0.004439
  157  H  4 XZ   -0.000567  -0.001732  -0.001635   0.000449   0.004438
  158  H  4 YZ    0.000567   0.001798   0.000989   0.001290  -0.004384
  159  H  4 XX    0.000377  -0.000048  -0.000151   0.000024   0.000643
  160  H  4 YY    0.000377  -0.000053  -0.000100  -0.000113   0.000580
  161  H  4 ZZ    0.000377  -0.000150  -0.000053  -0.000014   0.000575
  162  H  4 XY   -0.000153   0.000226   0.000316   0.000109   0.000320
  163  H  4 XZ    0.000153  -0.000258  -0.000300  -0.000076  -0.000318
  164  H  4 YZ   -0.000153   0.000260   0.000283   0.000121   0.000294
  165  H  4 XXX  -0.000148   0.000400   0.000537   0.000138  -0.003995
  166  H  4 YYY   0.000149  -0.000403  -0.000505  -0.000222   0.002322
  167  H  4 ZZZ  -0.000148   0.000462   0.000476   0.000160  -0.002201
  168  H  4 XXY   0.000120  -0.000103   0.000018   0.000005   0.001233
  169  H  4 XXZ  -0.000119   0.000001   0.000031   0.000099  -0.001179
  170  H  4 YYX  -0.000119   0.000102  -0.000014  -0.000014  -0.002145
  171  H  4 YYZ  -0.000119  -0.000005   0.000088  -0.000054  -0.001353
  172  H  4 ZZX  -0.000119  -0.000006   0.000038   0.000097  -0.002157
  173  H  4 ZZY   0.000120   0.000011  -0.000091   0.000047   0.001419
  174  H  4 XYZ   0.000124   0.000357   0.000431   0.000147   0.000496
  175  H  5  S    0.332068   0.728582  -0.221698  -0.110401  -0.256219
  176  H  5  S   -0.074980  -0.066629   0.020283   0.010108  -0.810568
  177  H  5  S   -0.091687  -0.111175   0.033829   0.016846  -0.014916
  178  H  5  S   -0.023598  -0.027961   0.008509   0.004238  -0.007910
  179  H  5  X   -0.001674  -0.005935   0.003249   0.008038   0.044430
  180  H  5  Y    0.001676   0.006378  -0.007558   0.003550  -0.000403
  181  H  5  Z    0.001678   0.009581   0.004153   0.001179   0.000916
  182  H  5  X   -0.002333  -0.006446   0.002436   0.003312   0.019309
  183  H  5  Y    0.002332   0.006591  -0.003845   0.000470  -0.007042
  184  H  5  Z    0.002330   0.007639  -0.000021  -0.000302  -0.006671
  185  H  5  X   -0.000912  -0.000265   0.000188   0.000575  -0.001920
  186  H  5  Y    0.000912   0.000298  -0.000511   0.000294   0.003095
  187  H  5  Z    0.000912   0.000538   0.000367   0.000116   0.003130
  188  H  5 XX    0.000783   0.002358  -0.000954  -0.001526  -0.008546
  189  H  5 YY    0.000782   0.002431  -0.001660   0.000371  -0.006600
  190  H  5 ZZ    0.000782   0.002956   0.000257  -0.000017  -0.006541
  191  H  5 XY    0.000565  -0.001714   0.001582   0.000654   0.004623
  192  H  5 XZ    0.000565  -0.002195  -0.000176   0.001010   0.004621
  193  H  5 YZ   -0.000565   0.002261  -0.000471   0.000729  -0.004568
  194  H  5 XX    0.000377   0.000113  -0.000051  -0.000102  -0.000666
  195  H  5 YY    0.000377   0.000118  -0.000102   0.000035  -0.000603
  196  H  5 ZZ    0.000377   0.000156   0.000036   0.000007  -0.000601
  197  H  5 XY   -0.000153  -0.000372   0.000141   0.000067  -0.000333
  198  H  5 XZ   -0.000153  -0.000385   0.000095   0.000076  -0.000332
  199  H  5 YZ    0.000153   0.000386  -0.000112  -0.000030   0.000308
  200  H  5 XXX   0.000153   0.000634  -0.000205  -0.000150  -0.004077
  201  H  5 YYY  -0.000152  -0.000638   0.000237   0.000066   0.002404
  202  H  5 ZZZ  -0.000152  -0.000662   0.000151   0.000082   0.002353
  203  H  5 XXY  -0.000121  -0.000076  -0.000065  -0.000026   0.001283
  204  H  5 XXZ  -0.000121  -0.000036   0.000080  -0.000056   0.001261
  205  H  5 YYX   0.000121   0.000075   0.000069   0.000017  -0.002196
  206  H  5 YYZ  -0.000121  -0.000030   0.000023   0.000097   0.001434
  207  H  5 ZZX   0.000121   0.000033  -0.000086   0.000048  -0.002201
  208  H  5 ZZY  -0.000121  -0.000027   0.000033   0.000096   0.001462
  209  H  5 XYZ   0.000124  -0.000548   0.000167   0.000083  -0.000514

                      6          7          8          9         10
                   -1.9660    -1.9661    -1.3632    20.1240    -0.3404
                     A          A          A          A          A   
    1  SI 1  S    0.000160   0.000117  -1.465310 140.011197  -1.293265
    2  SI 1  S    0.000728   0.000524   1.448010  54.641541 -28.416771
    3  SI 1  S   -0.002275  -0.001603 -13.736309 -74.020382  85.105516
    4  SI 1  S    0.000968   0.000670  28.438630 -57.682628 -15.474749
    5  SI 1  X    0.049216   0.201342  -0.000611  -0.000019   0.000198
    6  SI 1  Y   -0.590137   3.928125  -0.000993  -0.000017   0.000922
    7  SI 1  Z    3.932602   0.586904  -0.001985  -0.000008   0.001826
    8  SI 1  X    0.002702   0.011031  -0.000030  -0.000003   0.000017
    9  SI 1  Y   -0.032330   0.215192  -0.000039  -0.000003   0.000161
   10  SI 1  Z    0.215436   0.032150  -0.000077  -0.000003   0.000321
   11  SI 1  X   -0.011136  -0.045567   0.000180   0.000009  -0.000033
   12  SI 1  Y    0.133566  -0.889054   0.000321   0.000005   0.000678
   13  SI 1  Z   -0.890077  -0.132834   0.000643  -0.000003   0.001359
   14  SI 1  X   -0.015205  -0.062517   0.000437   0.000001   0.000024
   15  SI 1  Y    0.183248  -1.219790   0.000832  -0.000003  -0.002463
   16  SI 1  Z   -1.221152  -0.182277   0.001664  -0.000026  -0.004922
   17  SI 1 XX    0.000004   0.000004   0.034096  -9.459701  -0.047755
   18  SI 1 YY    0.000004   0.000004   0.034095  -9.459701  -0.047758
   19  SI 1 ZZ    0.000005   0.000003   0.034094  -9.459701  -0.047762
   20  SI 1 XY   -0.064126  -0.009572  -0.000006   0.000002  -0.000090
   21  SI 1 XZ    0.009623  -0.064057  -0.000003   0.000002  -0.000045
   22  SI 1 YZ   -0.000800  -0.003282  -0.000001   0.000001   0.000007
   23  SI 1 XX    0.000163   0.000120   0.819292 -35.868838  -8.259851
   24  SI 1 YY    0.000163   0.000120   0.819292 -35.868838  -8.259851
   25  SI 1 ZZ    0.000162   0.000120   0.819292 -35.868838  -8.259851
   26  SI 1 XY   -0.023063  -0.003449   0.000205  -0.000038   0.001439
   27  SI 1 XZ    0.003459  -0.023032   0.000102  -0.000019   0.000720
   28  SI 1 YZ   -0.000259  -0.001181   0.000028  -0.000006   0.000030
   29  SI 1 XX   -0.000177  -0.000108  -4.099861   1.764418   5.818294
   30  SI 1 YY   -0.000177  -0.000109  -4.099861   1.764418   5.818294
   31  SI 1 ZZ   -0.000168  -0.000115  -4.099861   1.764418   5.818294
   32  SI 1 XY   -0.044744  -0.006713   0.000838  -0.000018   0.002315
   33  SI 1 XZ    0.006706  -0.044708   0.000419  -0.000008   0.001157
   34  SI 1 YZ   -0.000469  -0.002267   0.000153  -0.000003   0.000119
   35  SI 1 XXX  -0.000455  -0.001939   0.000050  -0.000002   0.000019
   36  SI 1 YYY   0.005688  -0.037870   0.000124  -0.000005   0.000564
   37  SI 1 ZZZ  -0.037922  -0.005665   0.000247  -0.000010   0.001128
   38  SI 1 XXY   0.002680  -0.017841   0.000081  -0.000006   0.000377
   39  SI 1 XXZ  -0.017867  -0.002671   0.000167  -0.000013   0.000726
   40  SI 1 YYX  -0.000209  -0.000912   0.000033  -0.000003   0.000016
   41  SI 1 YYZ  -0.017867  -0.002671   0.000167  -0.000013   0.000726
   42  SI 1 ZZX  -0.000207  -0.000914   0.000033  -0.000003   0.000016
   43  SI 1 ZZY   0.002679  -0.017841   0.000086  -0.000007   0.000350
   44  SI 1 XYZ  -0.000026  -0.000018   0.066234   0.308575   0.376902
   45  SI 1 XXX  -0.005135  -0.021109   0.000145   0.000003   0.000007
   46  SI 1 YYY   0.061867  -0.411811   0.000313  -0.000001   0.001126
   47  SI 1 ZZZ  -0.412300  -0.061537   0.000625  -0.000005   0.002254
   48  SI 1 XXY   0.023573  -0.156927   0.000283  -0.000003   0.000845
   49  SI 1 XXZ  -0.157113  -0.023462   0.000607  -0.000010   0.001791
   50  SI 1 YYX  -0.001932  -0.008027   0.000133  -0.000001   0.000052
   51  SI 1 YYZ  -0.157113  -0.023462   0.000607  -0.000010   0.001791
   52  SI 1 ZZX  -0.001919  -0.008036   0.000136  -0.000001   0.000052
   53  SI 1 ZZY   0.023572  -0.156927   0.000325  -0.000006   0.000945
   54  SI 1 XYZ  -0.000134  -0.000094   0.139359   0.123552   5.533503
   55  SI 1XXXX   0.000033   0.000024  -0.105295  14.765523  -0.394534
   56  SI 1YYYY   0.000033   0.000024  -0.105298  14.765523  -0.394544
   57  SI 1ZZZZ   0.000035   0.000023  -0.105301  14.765523  -0.394554
   58  SI 1XXXY  -0.029251  -0.004370   0.000111   0.000002  -0.000284
   59  SI 1XXXZ   0.004389  -0.029220   0.000048   0.000002  -0.000216
   60  SI 1YYYX  -0.029251  -0.004370   0.000111   0.000002  -0.000284
   61  SI 1YYYZ  -0.000358  -0.001490   0.000026   0.000000   0.000016
   62  SI 1ZZZX   0.004389  -0.029221   0.000063   0.000000  -0.000068
   63  SI 1ZZZY  -0.000353  -0.001494   0.000027   0.000000   0.000017
   64  SI 1XXYY   0.000006   0.000007  -0.020011   8.642812   0.020219
   65  SI 1XXZZ   0.000009   0.000005  -0.020012   8.642812   0.020217
   66  SI 1YYZZ   0.000009   0.000005  -0.020013   8.642812   0.020214
   67  SI 1XXYZ   0.000021   0.000043   0.000027  -0.000002   0.000013
   68  SI 1YYXZ  -0.000126   0.000834   0.000053  -0.000001  -0.000236
   69  SI 1ZZXY   0.000836   0.000120   0.000107  -0.000002  -0.000473
   70  H  2  S   -0.204896  -0.284915   0.045224 -11.481715   1.040566
   71  H  2  S   -0.648163  -0.901189  -3.485458   1.766386   0.814385
   72  H  2  S   -0.011595  -0.016234   0.824850   6.984825 -17.333765
   73  H  2  S   -0.006330  -0.008797  -0.044191   6.467868   1.218211
   74  H  2  X   -0.000961   0.000231   0.135516   0.215996   3.659708
   75  H  2  Y   -0.008407   0.043626   0.135529   0.215997   3.659958
   76  H  2  Z    0.044257   0.004718   0.135561   0.215997   3.660220
   77  H  2  X    0.005298   0.007794  -0.096123   0.362281  -0.458073
   78  H  2  Y    0.003226   0.019892  -0.096137   0.362281  -0.458567
   79  H  2  Z    0.017906   0.009048  -0.096169   0.362281  -0.459078
   80  H  2  X   -0.002508  -0.003445   0.027698  -0.097660   0.103321
   81  H  2  Y   -0.002707  -0.002287   0.027702  -0.097660   0.103442
   82  H  2  Z   -0.001301  -0.003326   0.027711  -0.097660   0.103566
   83  H  2 XX   -0.005232  -0.007340  -0.086403  -1.230042   0.392580
   84  H  2 YY   -0.004905  -0.009252  -0.086403  -1.230042   0.392567
   85  H  2 ZZ   -0.007225  -0.007538  -0.086403  -1.230042   0.392555
   86  H  2 XY   -0.003634  -0.005118  -0.014218  -0.136355  -0.160822
   87  H  2 XZ   -0.003693  -0.005074  -0.014219  -0.136355  -0.160805
   88  H  2 YZ   -0.003685  -0.005123  -0.014219  -0.136355  -0.160787
   89  H  2 XX   -0.000482  -0.000672  -0.010973  -0.727863   0.031402
   90  H  2 YY   -0.000471  -0.000736  -0.010974  -0.727863   0.031403
   91  H  2 ZZ   -0.000548  -0.000679  -0.010974  -0.727863   0.031404
   92  H  2 XY    0.000240   0.000365   0.000292   0.036965   0.016147
   93  H  2 XZ    0.000269   0.000344   0.000292   0.036965   0.016144
   94  H  2 YZ    0.000265   0.000367   0.000292   0.036965   0.016142
   95  H  2 XXX  -0.001877  -0.002668   0.045828  -0.152472   0.147639
   96  H  2 YYY  -0.001595  -0.004319   0.045834  -0.152472   0.147842
   97  H  2 ZZZ  -0.003598  -0.002840   0.045848  -0.152472   0.148050
   98  H  2 XXY  -0.001026  -0.002348   0.021427  -0.055313   0.077777
   99  H  2 XXZ  -0.001910  -0.001695   0.021433  -0.055313   0.077868
  100  H  2 YYX  -0.001180  -0.001449   0.021424  -0.055313   0.077693
  101  H  2 YYZ  -0.001940  -0.001525   0.021433  -0.055313   0.077871
  102  H  2 ZZX  -0.000973  -0.001602   0.021424  -0.055313   0.077696
  103  H  2 ZZY  -0.000849  -0.002330   0.021427  -0.055313   0.077784
  104  H  2 XYZ  -0.000413  -0.000574   0.002036   0.008602   0.018239
  105  H  3  S   -0.270248   0.213923   0.045233 -11.481756   1.040358
  106  H  3  S   -0.854839   0.676655  -3.486360   1.766377   0.815330
  107  H  3  S   -0.015161   0.012824   0.827091   6.984831 -17.330929
  108  H  3  S   -0.008361   0.006587  -0.044273   6.467870   1.218051
  109  H  3  X    0.002633   0.000888  -0.135118  -0.216010  -3.659285
  110  H  3  Y   -0.004814   0.044284  -0.135102  -0.216010  -3.659035
  111  H  3  Z    0.043743   0.008302   0.135254   0.216008   3.659657
  112  H  3  X   -0.006603   0.006029   0.096241  -0.362317   0.458580
  113  H  3  Y   -0.008675   0.018126   0.096223  -0.362317   0.458085
  114  H  3  Z    0.019532  -0.003476  -0.096316   0.362317  -0.458421
  115  H  3  X    0.003340  -0.002575  -0.027727   0.097669  -0.103462
  116  H  3  Y    0.003140  -0.001416  -0.027722   0.097669  -0.103341
  117  H  3  Z   -0.002103   0.002822   0.027748  -0.097669   0.103415
  118  H  3 XX   -0.006840   0.005527  -0.086429  -1.230055   0.392597
  119  H  3 YY   -0.007167   0.007439  -0.086429  -1.230055   0.392610
  120  H  3 ZZ   -0.008886   0.005119  -0.086444  -1.230043   0.392411
  121  H  3 XY   -0.004801   0.003875  -0.014153  -0.136362  -0.160677
  122  H  3 XZ    0.004847  -0.003814   0.014165   0.136362   0.160737
  123  H  3 YZ    0.004855  -0.003863   0.014165   0.136362   0.160755
  124  H  3 XX   -0.000633   0.000503  -0.010979  -0.727863   0.031383
  125  H  3 YY   -0.000644   0.000567  -0.010979  -0.727863   0.031381
  126  H  3 ZZ   -0.000701   0.000490  -0.010978  -0.727863   0.031404
  127  H  3 XY    0.000324  -0.000283   0.000286   0.036966   0.016128
  128  H  3 XZ   -0.000345   0.000254  -0.000287  -0.036966  -0.016135
  129  H  3 YZ   -0.000349   0.000277  -0.000287  -0.036966  -0.016138
  130  H  3 XXX   0.002420  -0.002032  -0.045874   0.152487  -0.147888
  131  H  3 YYY   0.002702  -0.003682  -0.045866   0.152487  -0.147685
  132  H  3 ZZZ  -0.004185   0.001685   0.045905  -0.152487   0.147820
  133  H  3 XXY   0.001623  -0.001954  -0.021437   0.055319  -0.077698
  134  H  3 XXZ  -0.002278   0.001072   0.021455  -0.055319   0.077754
  135  H  3 YYX   0.001470  -0.001055  -0.021441   0.055319  -0.077782
  136  H  3 YYZ  -0.002249   0.000901   0.021455  -0.055319   0.077751
  137  H  3 ZZX   0.001316  -0.001262  -0.021442   0.055319  -0.077803
  138  H  3 ZZY   0.001440  -0.001990  -0.021438   0.055319  -0.077715
  139  H  3 XYZ  -0.000545   0.000429   0.002030   0.008603   0.018222
  140  H  4  S    0.276056  -0.189671   0.045238 -11.481875   1.040152
  141  H  4  S    0.873275  -0.600016  -3.486921   1.766408   0.816154
  142  H  4  S    0.016656  -0.010748   0.828680   6.984827 -17.328395
  143  H  4  S    0.008502  -0.005869  -0.044340   6.467954   1.217890
  144  H  4  X   -0.001291   0.003776  -0.134899  -0.216018  -3.658788
  145  H  4  Y   -0.005009   0.044333   0.134950   0.216018   3.659036
  146  H  4  Z    0.043937   0.008253  -0.134800  -0.216018  -3.658438
  147  H  4  X    0.007099  -0.004103   0.096336  -0.362336   0.457889
  148  H  4  Y   -0.008857   0.017505  -0.096384   0.362336  -0.458421
  149  H  4  Z    0.019699  -0.002844   0.096287  -0.362341   0.458066
  150  H  4  X   -0.003389   0.002398  -0.027751   0.097674  -0.103302
  151  H  4  Y    0.003222  -0.001114   0.027764  -0.097674   0.103431
  152  H  4  Z   -0.002181   0.002517  -0.027738   0.097676  -0.103353
  153  H  4 XX    0.007019  -0.004712  -0.086460  -1.230055   0.392453
  154  H  4 YY    0.007298  -0.006837  -0.086460  -1.230055   0.392440
  155  H  4 ZZ    0.009015  -0.004516  -0.086447  -1.230055   0.392638
  156  H  4 XY   -0.004941   0.003419   0.014126   0.136366   0.160693
  157  H  4 XZ    0.004985  -0.003358  -0.014114  -0.136366  -0.160633
  158  H  4 YZ   -0.004993   0.003416   0.014116   0.136366   0.160616
  159  H  4 XX    0.000645  -0.000441  -0.010981  -0.727873   0.031384
  160  H  4 YY    0.000654  -0.000511  -0.010981  -0.727873   0.031385
  161  H  4 ZZ    0.000711  -0.000435  -0.010982  -0.727873   0.031362
  162  H  4 XY    0.000335  -0.000249  -0.000284  -0.036967  -0.016129
  163  H  4 XZ   -0.000356   0.000220   0.000283   0.036967   0.016122
  164  H  4 YZ    0.000360  -0.000247  -0.000283  -0.036967  -0.016120
  165  H  4 XXX  -0.002530   0.001628  -0.045911   0.152495  -0.147644
  166  H  4 YYY   0.002770  -0.003456   0.045931  -0.152495   0.147860
  167  H  4 ZZZ  -0.004247   0.001455  -0.045890   0.152497  -0.147718
  168  H  4 XXY   0.001656  -0.001835   0.021465  -0.055323   0.077771
  169  H  4 XXZ  -0.002308   0.000952  -0.021447   0.055323  -0.077712
  170  H  4 YYX  -0.001525   0.000839  -0.021456   0.055323  -0.077681
  171  H  4 YYZ  -0.002283   0.000762  -0.021447   0.055323  -0.077715
  172  H  4 ZZX  -0.001372   0.001046  -0.021455   0.055322  -0.077660
  173  H  4 ZZY   0.001478  -0.001853   0.021464  -0.055323   0.077754
  174  H  4 XYZ   0.000554  -0.000382   0.002026   0.008604   0.018206
  175  H  5  S    0.198843   0.260481   0.045240 -11.481870   1.039947
  176  H  5  S    0.628963   0.823969  -3.487142   1.766411   0.816872
  177  H  5  S    0.011890   0.015419   0.829618   6.984826 -17.326163
  178  H  5  S    0.006134   0.008040  -0.044393   6.467954   1.217729
  179  H  5  X    0.001947   0.004173   0.134756   0.216024   3.658543
  180  H  5  Y   -0.008247   0.043936  -0.134703  -0.216024  -3.658269
  181  H  5  Z    0.044442   0.005010  -0.134668  -0.216024  -3.658007
  182  H  5  X   -0.004828  -0.005881  -0.096415   0.362350  -0.458383
  183  H  5  Y    0.003069   0.019283   0.096364  -0.362350   0.457855
  184  H  5  Z    0.017750   0.008440   0.096329  -0.362350   0.457342
  185  H  5  X    0.002465   0.003272   0.027772  -0.097678   0.103439
  186  H  5  Y   -0.002633  -0.001988  -0.027758   0.097678  -0.103311
  187  H  5  Z   -0.001227  -0.003027  -0.027748   0.097678  -0.103186
  188  H  5 XX    0.005009   0.006496  -0.086468  -1.230069   0.392469
  189  H  5 YY    0.004730   0.008621  -0.086468  -1.230069   0.392481
  190  H  5 ZZ    0.007058   0.006901  -0.086468  -1.230069   0.392494
  191  H  5 XY   -0.003537  -0.004695   0.014094   0.136369   0.160562
  192  H  5 XZ   -0.003601  -0.004648   0.014093   0.136369   0.160578
  193  H  5 YZ    0.003593   0.004707  -0.014090  -0.136369  -0.160594
  194  H  5 XX    0.000463   0.000605  -0.010983  -0.727873   0.031366
  195  H  5 YY    0.000454   0.000674  -0.010983  -0.727873   0.031365
  196  H  5 ZZ    0.000530   0.000618  -0.010982  -0.727873   0.031364
  197  H  5 XY    0.000234   0.000335  -0.000280  -0.036967  -0.016112
  198  H  5 XZ    0.000263   0.000314  -0.000280  -0.036967  -0.016114
  199  H  5 YZ   -0.000259  -0.000340   0.000280   0.036967   0.016117
  200  H  5 XXX   0.001781   0.002272   0.045944  -0.152501   0.147888
  201  H  5 YYY  -0.001540  -0.004100  -0.045921   0.152501  -0.147671
  202  H  5 ZZZ  -0.003543  -0.002621  -0.045906   0.152500  -0.147461
  203  H  5 XXY  -0.000996  -0.002231  -0.021459   0.055324  -0.077678
  204  H  5 XXZ  -0.001880  -0.001578  -0.021452   0.055324  -0.077587
  205  H  5 YYX   0.001127   0.001234   0.021469  -0.055324   0.077768
  206  H  5 YYZ  -0.001905  -0.001388  -0.021452   0.055324  -0.077584
  207  H  5 ZZX   0.000919   0.001387   0.021469  -0.055324   0.077765
  208  H  5 ZZY  -0.000813  -0.002194  -0.021459   0.055324  -0.077671
  209  H  5 XYZ   0.000399   0.000523   0.002023   0.008604   0.018189

                     11         12         13         14         15
                   15.4990    15.2986    15.2986    15.2986    -1.2307
                     A          A          A          A          A   
    1  SI 1  S   18.135362   0.003062  -0.003559  -0.003358   0.533686
    2  SI 1  S    2.466091   0.000268  -0.000385  -0.000333  -5.595650
    3  SI 1  S   11.677965   0.002751  -0.002899  -0.002927 -11.153969
    4  SI 1  S  -20.100343  -0.003833   0.004321   0.004232  46.289597
    5  SI 1  X    0.000007  -1.162629   0.078627  -1.137402   0.000065
    6  SI 1  Y   -0.000233   1.042305   0.731697  -1.014782   0.000142
    7  SI 1  Z   -0.000458   0.462110  -1.452589  -0.572741   0.000283
    8  SI 1  X    0.000000  -0.106811   0.007226  -0.104494   0.000017
    9  SI 1  Y   -0.000022   0.095757   0.067221  -0.093229   0.000045
   10  SI 1  Z   -0.000043   0.042452  -0.133450  -0.052621   0.000090
   11  SI 1  X   -0.000003   0.891216  -0.060262   0.871910  -0.000029
   12  SI 1  Y    0.000187  -0.798986  -0.560897   0.777906  -0.000056
   13  SI 1  Z    0.000374  -0.354239   1.113503   0.439039  -0.000112
   14  SI 1  X    0.000010  -4.800313   0.324661  -4.696291   0.000136
   15  SI 1  Y   -0.001076   4.303522   3.021128  -4.189992   0.000291
   16  SI 1  Z   -0.002153   1.907950  -5.997590  -2.364834   0.000581
   17  SI 1 XX   -1.711996  -0.000305   0.000348   0.000333  -0.090015
   18  SI 1 YY   -1.711996  -0.000305   0.000348   0.000333  -0.090019
   19  SI 1 ZZ   -1.711996  -0.000305   0.000349   0.000333  -0.090023
   20  SI 1 XY    0.000005   0.012160  -0.038210  -0.015061  -0.000009
   21  SI 1 XZ    0.000002   0.027420   0.019248  -0.026694  -0.000004
   22  SI 1 YZ    0.000000  -0.030584   0.002063  -0.029924  -0.000001
   23  SI 1 XX   -6.869218  -0.001161   0.001321   0.001259  -2.041068
   24  SI 1 YY   -6.869218  -0.001161   0.001321   0.001259  -2.041068
   25  SI 1 ZZ   -6.869218  -0.001161   0.001320   0.001259  -2.041068
   26  SI 1 XY   -0.001308   1.072220  -3.370626  -1.329072   0.000165
   27  SI 1 XZ   -0.000654   2.418560   1.697860  -2.354754   0.000083
   28  SI 1 YZ    0.000004  -2.697765   0.182512  -2.639264   0.000034
   29  SI 1 XX    4.288146   0.000857  -0.000953  -0.000942 -11.847769
   30  SI 1 YY    4.288146   0.000857  -0.000953  -0.000942 -11.847769
   31  SI 1 ZZ    4.288146   0.000858  -0.000946  -0.000944 -11.847769
   32  SI 1 XY   -0.000166   0.159036  -0.499910  -0.197111   0.000503
   33  SI 1 XZ   -0.000083   0.358718   0.251810  -0.349227   0.000252
   34  SI 1 YZ    0.000002  -0.400129   0.027065  -0.391424   0.000098
   35  SI 1 XXX  -0.000001   0.154483  -0.010435   0.151142   0.000033
   36  SI 1 YYY   0.000029  -0.138498  -0.097227   0.134842   0.000093
   37  SI 1 ZZZ   0.000058  -0.061413   0.193015   0.076093   0.000186
   38  SI 1 XXY  -0.000180   0.680518   0.477729  -0.662558   0.000071
   39  SI 1 XXZ  -0.000364   0.301695  -0.948398  -0.373961   0.000145
   40  SI 1 YYX   0.000001  -0.759077   0.051347  -0.742613   0.000028
   41  SI 1 YYZ  -0.000364   0.301695  -0.948398  -0.373961   0.000145
   42  SI 1 ZZX   0.000001  -0.759077   0.051356  -0.742613   0.000028
   43  SI 1 ZZY  -0.000184   0.680518   0.477729  -0.662558   0.000074
   44  SI 1 XYZ  -0.283381  -0.000030   0.000032   0.000031  -0.006959
   45  SI 1 XXX  -0.000005   2.098815  -0.141931   2.053336   0.000013
   46  SI 1 YYY   0.000459  -1.881610  -1.320912   1.831962   0.000065
   47  SI 1 ZZZ   0.000917  -0.834218   2.622291   1.033944   0.000130
   48  SI 1 XXY   0.000064  -0.254430  -0.178623   0.247739   0.000201
   49  SI 1 XXZ   0.000124  -0.112805   0.354598   0.139815   0.000437
   50  SI 1 YYX  -0.000001   0.283802  -0.019196   0.277674   0.000079
   51  SI 1 YYZ   0.000124  -0.112805   0.354598   0.139815   0.000437
   52  SI 1 ZZX  -0.000001   0.283806  -0.019182   0.277671   0.000083
   53  SI 1 ZZY   0.000060  -0.254438  -0.178623   0.247731   0.000235
   54  SI 1 XYZ   1.342270   0.000273  -0.000299  -0.000293  -0.097312
   55  SI 1XXXX   1.614448   0.000249  -0.000297  -0.000275  -0.377643
   56  SI 1YYYY   1.614448   0.000249  -0.000297  -0.000275  -0.377652
   57  SI 1ZZZZ   1.614448   0.000250  -0.000291  -0.000276  -0.377661
   58  SI 1XXXY   0.000020   0.009812  -0.030805  -0.012134   0.000111
   59  SI 1XXXZ   0.000012   0.022115   0.015518  -0.021515   0.000053
   60  SI 1YYYX   0.000020   0.009812  -0.030805  -0.012134   0.000111
   61  SI 1YYYZ   0.000001  -0.024664   0.001649  -0.024123   0.000022
   62  SI 1ZZZX   0.000008   0.022108   0.015518  -0.021521   0.000059
   63  SI 1ZZZY   0.000001  -0.024660   0.001662  -0.024126   0.000023
   64  SI 1XXYY   1.377410   0.000224  -0.000264  -0.000246  -0.230774
   65  SI 1XXZZ   1.377410   0.000226  -0.000257  -0.000247  -0.230776
   66  SI 1YYZZ   1.377410   0.000226  -0.000257  -0.000247  -0.230779
   67  SI 1XXYZ   0.000001  -0.540886   0.036576  -0.529170   0.000029
   68  SI 1YYXZ  -0.000120   0.484911   0.340413  -0.472119   0.000068
   69  SI 1ZZXY  -0.000239   0.214988  -0.675795  -0.266460   0.000135
   70  H  2  S   34.789728  -7.370254  13.854878  58.806618   0.204828
   71  H  2  S   -7.853842   1.639764  -3.082492 -13.083569  -2.747687
   72  H  2  S  -24.778144   4.304858  -8.093145 -34.354401   1.462017
   73  H  2  S  -20.028519   4.059153  -7.630668 -32.388694  -0.120895
   74  H  2  X    0.969102  -0.240488  -0.004910  -0.339296  -0.093073
   75  H  2  Y    0.969048   0.237925   0.136794  -0.312688  -0.093050
   76  H  2  Z    0.968995   0.112038  -0.337145  -0.216773  -0.093017
   77  H  2  X   -3.507516   1.848851  -2.164584  -8.271042  -0.004566
   78  H  2  Y   -3.507355   0.477198  -2.570855  -8.347324  -0.004588
   79  H  2  Z   -3.507195   0.838132  -1.212028  -8.622317  -0.004617
   80  H  2  X    0.920897  -0.470750   0.555921   2.129588  -0.002363
   81  H  2  Y    0.920856  -0.126504   0.657884   2.148733  -0.002356
   82  H  2  Z    0.920817  -0.217088   0.316857   2.217748  -0.002349
   83  H  2 XX    3.598620  -0.872198   1.575368   6.641564  -0.046691
   84  H  2 YY    3.598620  -0.805041   1.595259   6.645299  -0.046690
   85  H  2 ZZ    3.598620  -0.822712   1.528731   6.658763  -0.046688
   86  H  2 XY    0.161544  -0.105457   0.204464   0.807589   0.026060
   87  H  2 XZ    0.161541  -0.111686   0.181019   0.812333   0.026061
   88  H  2 YZ    0.161539  -0.088020   0.188028   0.813649   0.026061
   89  H  2 XX    2.316189  -0.471092   0.918785   3.922948  -0.002189
   90  H  2 YY    2.316189  -0.505844   0.908491   3.921015  -0.002190
   91  H  2 ZZ    2.316189  -0.496699   0.942919   3.914048  -0.002190
   92  H  2 XY   -0.061605   0.019087  -0.043041  -0.114108  -0.001812
   93  H  2 XZ   -0.061602   0.026201  -0.016260  -0.119528  -0.001812
   94  H  2 YZ   -0.061599  -0.000832  -0.024266  -0.121031  -0.001812
   95  H  2 XXX   1.681241  -0.843091   0.931303   3.496154  -0.004204
   96  H  2 YYY   1.681161  -0.159212   1.133861   3.534187  -0.004195
   97  H  2 ZZZ   1.681082  -0.339168   0.456377   3.671292  -0.004183
   98  H  2 XXY   0.706230  -0.058262   0.456047   1.496094  -0.001810
   99  H  2 XXZ   0.706201  -0.124158   0.207965   1.546300  -0.001804
  100  H  2 YYX   0.706264  -0.351513   0.369189   1.479785  -0.001814
  101  H  2 YYZ   0.706201  -0.166984   0.195280   1.543918  -0.001805
  102  H  2 ZZX   0.706264  -0.340244   0.411614   1.471199  -0.001815
  103  H  2 ZZY   0.706239  -0.089819   0.485788   1.485126  -0.001810
  104  H  2 XYZ  -0.029508   0.023210  -0.043620  -0.185091   0.000735
  105  H  3  S   34.779495 -12.564079  48.834151 -34.096626   0.204926
  106  H  3  S   -7.851555   2.795308 -10.864839   7.585963  -2.747321
  107  H  3  S  -24.772178   7.339122 -28.528328  19.920655   1.463047
  108  H  3  S  -20.022931   6.919757 -26.896174  18.779494  -0.120931
  109  H  3  X   -0.969121  -0.272186   0.093928  -0.300044   0.093452
  110  H  3  Y   -0.969175   0.206226   0.235632  -0.273437   0.093484
  111  H  3  Z    0.969012   0.120192  -0.392043  -0.071007  -0.093469
  112  H  3  X    3.505772  -1.195317   7.407207  -4.497634   0.004658
  113  H  3  Y    3.505933  -2.566970   7.000935  -4.573917   0.004626
  114  H  3  Z   -3.505479   1.631093  -6.552460   5.561541  -0.004572
  115  H  3  X   -0.920448   0.311482  -1.903668   1.159969   0.002343
  116  H  3  Y   -0.920489   0.655728  -1.801705   1.179114   0.002351
  117  H  3  Z    0.920375  -0.420850   1.689151  -1.426979  -0.002365
  118  H  3 XX    3.597435  -1.391016   5.541674  -3.836170  -0.046640
  119  H  3 YY    3.597435  -1.458174   5.521783  -3.839905  -0.046640
  120  H  3 ZZ    3.597435  -1.412350   5.499821  -3.888267  -0.046640
  121  H  3 XY    0.161385  -0.176237   0.681143  -0.458408   0.026117
  122  H  3 XZ   -0.161380   0.160090  -0.673403   0.475456  -0.026113
  123  H  3 YZ   -0.161383   0.183756  -0.666394   0.476772  -0.026113
  124  H  3 XX    2.315516  -0.852635   3.244045  -2.282094  -0.002183
  125  H  3 YY    2.315516  -0.817882   3.254338  -2.280161  -0.002183
  126  H  3 ZZ    2.315516  -0.841594   3.265702  -2.255136  -0.002183
  127  H  3 XY   -0.061584   0.028546  -0.106737   0.055058  -0.001817
  128  H  3 XZ    0.061576  -0.010102   0.097899  -0.074526   0.001816
  129  H  3 YZ    0.061579  -0.037135   0.089892  -0.076029   0.001816
  130  H  3 XXX  -1.680494   0.461825  -3.171882   1.878625   0.004174
  131  H  3 YYY  -1.680574   1.145704  -2.969324   1.916658   0.004188
  132  H  3 ZZZ   1.680348  -0.679096   2.745725  -2.409068  -0.004213
  133  H  3 XXY  -0.705982   0.480545  -1.238188   0.828209   0.001809
  134  H  3 XXZ   0.705898  -0.309681   1.156310  -1.008521  -0.001819
  135  H  3 YYX  -0.705948   0.187294  -1.325047   0.811900   0.001803
  136  H  3 YYZ   0.705898  -0.266855   1.168995  -1.006140  -0.001819
  137  H  3 ZZX  -0.705959   0.216515  -1.339050   0.781064   0.001804
  138  H  3 ZZY  -0.705982   0.466939  -1.264876   0.794991   0.001810
  139  H  3 XYZ  -0.029472   0.039556  -0.153707   0.107288   0.000731
  140  H  4  S   34.769123 -37.609162 -45.453570 -15.015139   0.205007
  141  H  4  S   -7.849237   8.367447  10.112702   3.340629  -2.747057
  142  H  4  S  -24.766135  21.970653  26.555475   8.772994   1.463777
  143  H  4  S  -20.017267  20.713821  25.034541   8.270019  -0.120965
  144  H  4  X   -0.969140  -0.311496  -0.054025  -0.270117   0.093786
  145  H  4  Y    0.969087   0.285391   0.229837  -0.196841  -0.093754
  146  H  4  Z   -0.969250   0.041026  -0.386250  -0.147602   0.093780
  147  H  4  X    3.504042  -5.019052  -6.988082  -1.584419   0.004606
  148  H  4  Y   -3.503884   5.093905   6.483959   2.923349  -0.004626
  149  H  4  Z    3.504338  -6.029788  -6.035507  -1.935720   0.004661
  150  H  4  X   -0.920004   1.294041   1.795389   0.411381   0.002360
  151  H  4  Y    0.919964  -1.312827  -1.668869  -0.747413  -0.002355
  152  H  4  Z   -0.920077   1.547707   1.556321   0.499547   0.002346
  153  H  4 XX    3.596241  -4.234308  -5.162539  -1.669903  -0.046606
  154  H  4 YY    3.596241  -4.237974  -5.137851  -1.735474  -0.046603
  155  H  4 ZZ    3.596241  -4.283798  -5.115893  -1.687110  -0.046604
  156  H  4 XY   -0.161220   0.507618   0.634921   0.210693  -0.026149
  157  H  4 XZ    0.161225  -0.523765  -0.627183  -0.193645   0.026153
  158  H  4 YZ   -0.161222   0.525058   0.618479   0.216758  -0.026153
  159  H  4 XX    2.314832  -2.515743  -3.017076  -1.015002  -0.002178
  160  H  4 YY    2.314832  -2.513846  -3.029850  -0.981074  -0.002178
  161  H  4 ZZ    2.314832  -2.490134  -3.041213  -1.006100  -0.002178
  162  H  4 XY    0.061552  -0.062823  -0.100574  -0.034362   0.001818
  163  H  4 XZ   -0.061561   0.081267   0.091735   0.014894  -0.001819
  164  H  4 YZ    0.061558  -0.082742  -0.081798  -0.041286   0.001819
  165  H  4 XXX  -1.679754   2.100993   2.999115   0.629785   0.004204
  166  H  4 YYY   1.679676  -2.138313  -2.747769  -1.297347  -0.004196
  167  H  4 ZZZ  -1.679902   2.604923   2.524179   0.804934   0.004180
  168  H  4 XXY   0.705616  -0.920614  -1.143659  -0.543076  -0.001813
  169  H  4 XXZ  -0.705700   1.091478   1.061783   0.362762   0.001807
  170  H  4 YYX  -0.705649   0.904610   1.251438   0.256819   0.001818
  171  H  4 YYZ  -0.705700   1.089141   1.077524   0.320956   0.001807
  172  H  4 ZZX  -0.705638   0.875389   1.265439   0.287655   0.001817
  173  H  4 ZZY   0.705609  -0.889055  -1.173400  -0.532106  -0.001813
  174  H  4 XYZ  -0.029435   0.118379   0.143031   0.047238   0.000729
  175  H  5  S   34.758609  57.568565 -17.262897  -9.721963   0.205075
  176  H  5  S   -7.846890 -12.808089   3.840719   2.162980  -2.746896
  177  H  5  S  -24.760006 -33.633032  10.086138   5.680640   1.464207
  178  H  5  S  -20.011520 -31.707095   9.508020   5.354710  -0.120999
  179  H  5  X    0.969163  -0.342374   0.043924  -0.231745  -0.093923
  180  H  5  Y   -0.969216   0.316269   0.131888  -0.235213   0.093964
  181  H  5  Z   -0.969269   0.190388  -0.342029  -0.139302   0.093996
  182  H  5  X   -3.502276  -8.065584   2.586308   2.191529  -0.004655
  183  H  5  Y    3.502434   8.140438  -3.090430  -0.852599   0.004625
  184  H  5  Z    3.502594   8.501388  -1.731543  -1.127604   0.004602
  185  H  5  X    0.919550   2.076894  -0.664882  -0.558906  -0.002349
  186  H  5  Y   -0.919589  -2.095680   0.791402   0.222873   0.002357
  187  H  5  Z   -0.919629  -2.186268   0.450361   0.291891   0.002363
  188  H  5 XX    3.595026   6.500113  -1.957345  -1.138293  -0.046579
  189  H  5 YY    3.595026   6.503779  -1.982033  -1.072723  -0.046582
  190  H  5 ZZ    3.595026   6.521455  -1.915485  -1.086191  -0.046583
  191  H  5 XY   -0.161058  -0.789387   0.250776   0.138569  -0.026174
  192  H  5 XZ   -0.161061  -0.795619   0.227319   0.143315  -0.026174
  193  H  5 YZ    0.161063   0.796911  -0.236022  -0.120202   0.026174
  194  H  5 XX    2.314140   3.841134  -1.147573  -0.627652  -0.002174
  195  H  5 YY    2.314140   3.839237  -1.134798  -0.661580  -0.002173
  196  H  5 ZZ    2.314140   3.830091  -1.169232  -0.654611  -0.002173
  197  H  5 XY    0.061531   0.110490  -0.049245  -0.024725   0.001820
  198  H  5 XZ    0.061534   0.117605  -0.022460  -0.030145   0.001821
  199  H  5 YZ   -0.061537  -0.119080   0.032397   0.003753  -0.001821
  200  H  5 XXX   1.678999   3.407042  -1.105316  -0.988962  -0.004188
  201  H  5 YYY  -1.679077  -3.444363   1.356662   0.321400   0.004199
  202  H  5 ZZZ  -1.679156  -3.624326   0.679150   0.458511   0.004209
  203  H  5 XXY  -0.705362  -1.459900   0.551103   0.125324   0.001817
  204  H  5 XXZ  -0.705392  -1.525799   0.303008   0.175532   0.001821
  205  H  5 YYX   0.705329   1.443896  -0.443324  -0.411581  -0.001811
  206  H  5 YYZ  -0.705392  -1.523462   0.287268   0.217338   0.001821
  207  H  5 ZZX   0.705329   1.432626  -0.485753  -0.402994  -0.001810
  208  H  5 ZZY  -0.705354  -1.446292   0.577792   0.158543   0.001816
  209  H  5 XYZ  -0.029398  -0.181161   0.054313   0.030581   0.000728

                     16         17         18         19         20
                    9.1453     9.1453     9.1453     8.3660    -0.7911
                     A          A          A          A          A   
    1  SI 1  S    0.000031  -0.000909   0.000187  41.946841   0.000013
    2  SI 1  S    0.000272   0.001228  -0.000400  19.483250   0.002336
    3  SI 1  S   -0.000509  -0.002639   0.000835 -20.117213  -0.003283
    4  SI 1  S   -0.000175  -0.000838   0.000309 -24.980804  -0.004201
    5  SI 1  X   -1.354608   0.153396  -0.635519   0.000011   4.558388
    6  SI 1  Y    0.651657   0.199451  -1.340898   0.000138  -0.028283
    7  SI 1  Z    0.052487   1.482974   0.246065   0.000273   0.031872
    8  SI 1  X   -0.032905   0.003774  -0.015437  -0.000000   0.475457
    9  SI 1  Y    0.015826   0.004848  -0.032577   0.000054  -0.002961
   10  SI 1  Z    0.001313   0.036021   0.005994   0.000107   0.003296
   11  SI 1  X    0.365383  -0.041494   0.171429  -0.000000  -0.921392
   12  SI 1  Y   -0.175757  -0.053803   0.361703  -0.000155   0.005727
   13  SI 1  Z   -0.014241  -0.400006  -0.066411  -0.000309  -0.006796
   14  SI 1  X   -9.773694   1.105766  -4.585520   0.000039   6.270431
   15  SI 1  Y    4.701709   1.438898  -9.674624  -0.000005  -0.038278
   16  SI 1  Z    0.377732  10.699661   1.774909  -0.000025   0.047068
   17  SI 1 XX   -0.000004   0.000042  -0.000005  -2.155085   0.000023
   18  SI 1 YY   -0.000004   0.000042  -0.000005  -2.155085   0.000023
   19  SI 1 ZZ   -0.000003   0.000041  -0.000007  -2.155085   0.000024
   20  SI 1 XY   -0.033299  -0.944354  -0.156635   0.000096   0.004104
   21  SI 1 XZ   -0.414975  -0.126993   0.853873   0.000048  -0.003499
   22  SI 1 YZ    0.862619  -0.097543   0.404715  -0.000001   0.567876
   23  SI 1 XX    0.000116   0.000862  -0.000222  -4.699964   0.000808
   24  SI 1 YY    0.000116   0.000862  -0.000222  -4.699964   0.000808
   25  SI 1 ZZ    0.000120   0.000853  -0.000232  -4.699964   0.000807
   26  SI 1 XY    0.431905  12.240563   2.030413  -0.000637   0.007935
   27  SI 1 XZ    5.378883   1.646097 -11.067851  -0.000310  -0.007198
   28  SI 1 YZ  -11.181245   1.264669  -5.245860   0.000032   1.158799
   29  SI 1 XX    0.000031   0.000204  -0.000061   3.536677   0.001087
   30  SI 1 YY    0.000031   0.000204  -0.000061   3.536677   0.001088
   31  SI 1 ZZ    0.000034   0.000195  -0.000072   3.536677   0.001087
   32  SI 1 XY    0.058787   1.661671   0.275704   0.000227   0.036970
   33  SI 1 XZ    0.730199   0.223473  -1.502468   0.000115  -0.032782
   34  SI 1 YZ   -1.517870   0.171839  -0.712099   0.000013   5.273692
   35  SI 1 XXX  -0.614362   0.069557  -0.288254   0.000002   0.544226
   36  SI 1 YYY   0.295530   0.090454  -0.608150   0.000054  -0.003433
   37  SI 1 ZZZ   0.023770   0.672569   0.111580   0.000106   0.003542
   38  SI 1 XXY   1.438562   0.440239  -2.960018   0.000002  -0.003092
   39  SI 1 XXZ   0.115569   3.273646   0.543046  -0.000033   0.003402
   40  SI 1 YYX  -2.990360   0.338310  -1.402946   0.000009   0.498723
   41  SI 1 YYZ   0.115569   3.273646   0.543046  -0.000033   0.003402
   42  SI 1 ZZX  -2.990360   0.338279  -1.402983   0.000009   0.498723
   43  SI 1 ZZY   1.438530   0.440239  -2.960018  -0.000031  -0.003111
   44  SI 1 XYZ   0.000015   0.000019  -0.000001   3.640852   0.000000
   45  SI 1 XXX   2.547471  -0.288202   1.195166  -0.000007   0.961232
   46  SI 1 YYY  -1.225500  -0.375035   2.521627   0.000009  -0.005740
   47  SI 1 ZZZ  -0.098473  -2.788801  -0.462630   0.000022   0.006946
   48  SI 1 XXY   0.134275   0.041084  -0.276208   0.000078  -0.016105
   49  SI 1 XXZ   0.010853   0.305490   0.050707   0.000118   0.017964
   50  SI 1 YYX  -0.279069   0.031644  -0.130878   0.000004   2.585290
   51  SI 1 YYZ   0.010853   0.305490   0.050707   0.000118   0.017964
   52  SI 1 ZZX  -0.279052   0.031609  -0.130922   0.000004   2.585290
   53  SI 1 ZZY   0.134237   0.041089  -0.276226   0.000040  -0.016035
   54  SI 1 XYZ  -0.000041  -0.000263   0.000079   1.665805  -0.000216
   55  SI 1XXXX   0.000001  -0.000064   0.000015   3.636398   0.000061
   56  SI 1YYYY   0.000001  -0.000064   0.000015   3.636398   0.000061
   57  SI 1ZZZZ   0.000007  -0.000078  -0.000001   3.636398   0.000062
   58  SI 1XXXY  -0.059314  -1.683126  -0.279155   0.000221   0.008294
   59  SI 1XXXZ  -0.739581  -0.226343   1.521879   0.000129  -0.006891
   60  SI 1YYYX  -0.059314  -1.683126  -0.279155   0.000221   0.008294
   61  SI 1YYYZ   1.537438  -0.173812   0.721366  -0.000002   1.134491
   62  SI 1ZZZX  -0.739619  -0.226338   1.521861   0.000090  -0.006967
   63  SI 1ZZZY   1.537455  -0.173849   0.721320  -0.000002   1.134491
   64  SI 1XXYY  -0.000015  -0.000099   0.000040   3.141419   0.000019
   65  SI 1XXZZ  -0.000007  -0.000116   0.000020   3.141419   0.000020
   66  SI 1YYZZ  -0.000007  -0.000116   0.000020   3.141419   0.000020
   67  SI 1XXYZ  -1.138289   0.128858  -0.534055   0.000005   0.787061
   68  SI 1YYXZ   0.547573   0.167586  -1.126762   0.000071  -0.004891
   69  SI 1ZZXY   0.044046   1.246129   0.206739   0.000141   0.005737
   70  H  2  S   -0.111239   0.314695  -0.296293  -1.011912   0.252154
   71  H  2  S    0.088770  -0.250658   0.236211   0.325594  -1.280909
   72  H  2  S    1.643065  -4.636100   4.370237  -3.107150  -9.323319
   73  H  2  S    1.456860  -4.110933   3.875086  -1.615626   0.515091
   74  H  2  X   -0.684447   0.934691  -1.014513   0.877733   2.273320
   75  H  2  Y   -0.139600   0.947213  -1.206067   0.877748   2.169369
   76  H  2  Z   -0.302335   1.295778  -0.775108   0.877764   2.170427
   77  H  2  X   -2.807229  12.883852 -11.480981   7.273004  -0.294625
   78  H  2  Y   -5.521481  12.821386 -10.526736   7.273004  -0.253809
   79  H  2  Z   -4.710705  11.084947 -12.673589   7.273005  -0.254078
   80  H  2  X    0.804474  -3.338885   3.004401  -1.895771   0.073776
   81  H  2  Y    1.389123  -3.325430   2.798857  -1.895770   0.064268
   82  H  2  Z    1.214483  -2.951402   3.261288  -1.895771   0.064327
   83  H  2 XX    0.402645  -1.390274   1.276590  -0.776946   0.139502
   84  H  2 YY    0.541736  -1.387074   1.227690  -0.776946   0.116032
   85  H  2 ZZ    0.500190  -1.298092   1.337703  -0.776946   0.116362
   86  H  2 XY    0.539920  -1.490865   1.438131  -1.044501  -0.146895
   87  H  2 XZ    0.551839  -1.516400   1.406559  -1.044501  -0.147103
   88  H  2 YZ    0.511923  -1.517314   1.420593  -1.044501  -0.131469
   89  H  2 XX   -0.176158   0.635169  -0.580248   0.412969   0.008708
   90  H  2 YY   -0.251665   0.633430  -0.553703   0.412969   0.012179
   91  H  2 ZZ   -0.229110   0.585125  -0.613424   0.412969   0.012130
   92  H  2 XY   -0.074207   0.239915  -0.195364   0.222005   0.014029
   93  H  2 XZ   -0.062977   0.215868  -0.225093   0.222008   0.014057
   94  H  2 YZ   -0.100562   0.215000  -0.211880   0.222012   0.011915
   95  H  2 XXX   1.076653  -5.471011   4.831701  -3.193242   0.120058
   96  H  2 YYY   2.407298  -5.440382   4.363889  -3.193242   0.104569
   97  H  2 ZZZ   2.009815  -4.589102   5.416369  -3.193242   0.104666
   98  H  2 XXY   0.956898  -2.229710   1.700565  -1.222857   0.047431
   99  H  2 XXZ   0.761744  -1.811748   2.217313  -1.222857   0.047450
  100  H  2 YYX   0.409398  -2.242308   1.893049  -1.222857   0.056553
  101  H  2 YYZ   0.867564  -1.809312   2.180110  -1.222857   0.051387
  102  H  2 ZZX   0.377787  -2.174608   1.976748  -1.222857   0.056498
  103  H  2 ZZY   1.031107  -2.159572   1.747062  -1.222857   0.051312
  104  H  2 XYZ  -0.149134   0.420747  -0.396641   0.325624   0.004876
  105  H  3  S    0.129332   0.193987   0.380173  -1.011931  -0.247835
  106  H  3  S   -0.103151  -0.154272  -0.303413   0.325683   1.263708
  107  H  3  S   -1.907728  -2.854358  -5.613027  -3.106860   9.189279
  108  H  3  S   -1.691463  -2.531434  -4.976625  -1.615633  -0.507268
  109  H  3  X   -0.735388  -0.508165  -1.254004  -0.877687   2.242039
  110  H  3  Y   -0.190541  -0.495643  -1.445558  -0.877672   2.138089
  111  H  3  Z    0.381755   0.952493   1.148243   0.877688  -2.138610
  112  H  3  X   -3.553922  -8.268633 -14.989264  -7.273393  -0.290724
  113  H  3  Y   -6.268174  -8.331099 -14.035019  -7.273393  -0.249909
  114  H  3  Z    5.315784   6.054856  15.516423   7.273240   0.250413
  115  H  3  X    0.997463   2.128178   3.911162   1.895868   0.072784
  116  H  3  Y    1.582112   2.141632   3.705618   1.895868   0.063276
  117  H  3  Z   -1.376966  -1.651325  -4.024711  -1.895829  -0.063403
  118  H  3 XX   -0.482532  -0.873238  -1.652092  -0.776985  -0.137617
  119  H  3 YY   -0.621624  -0.876437  -1.603192  -0.776985  -0.114148
  120  H  3 ZZ   -0.572823  -0.759756  -1.679125  -0.776944  -0.114136
  121  H  3 XY   -0.624536  -0.906700  -1.835804  -1.044543   0.145092
  122  H  3 XZ    0.638558   0.940141   1.814047   1.044543  -0.145028
  123  H  3 YZ    0.598642   0.939226   1.828081   1.044530  -0.129395
  124  H  3 XX    0.212733   0.400454   0.751981   0.412981  -0.008522
  125  H  3 YY    0.288240   0.402193   0.725435   0.412981  -0.011992
  126  H  3 ZZ    0.261750   0.338859   0.766656   0.412967  -0.011994
  127  H  3 XY    0.088258   0.158416   0.261417   0.222015  -0.013867
  128  H  3 XZ   -0.075080  -0.126888  -0.281945  -0.222020   0.013858
  129  H  3 YZ   -0.112665  -0.127756  -0.268732  -0.222015   0.011716
  130  H  3 XXX   1.394494   3.533204   6.325062   3.193435   0.118445
  131  H  3 YYY   2.725139   3.563833   5.857250   3.193436   0.102957
  132  H  3 ZZZ  -2.258244  -2.447926  -6.583507  -3.193379  -0.103161
  133  H  3 XXY   1.088243   1.491008   2.317651   1.222921   0.046647
  134  H  3 XXZ  -0.859002  -0.943127  -2.674224  -1.222897  -0.046744
  135  H  3 YYX   0.540743   1.478409   2.510135   1.222921   0.055770
[...]
  134  H  3 XXZ  -0.894270   1.209730   0.037227   0.173331
  135  H  3 YYX   0.918301  -1.165852  -0.087359  -0.087148
  136  H  3 YYZ  -0.878346   1.213165   0.038247   0.161295
  137  H  3 ZZX   0.946634  -1.146939  -0.119193  -0.052261
  138  H  3 ZZY   1.010484  -1.131060  -0.121328  -0.045001
  139  H  3 XYZ   0.114784  -0.090583   0.013377  -0.027626
  140  H  4  S   22.475084  27.250389  -3.064718  -2.952635
  141  H  4  S   -4.994989  -6.035495   0.077669   0.130909
  142  H  4  S  -14.233146 -19.449353   0.112536   3.031133
  143  H  4  S  -12.685367 -15.741633   1.525590   1.878806
  144  H  4  X   -0.370404  -0.618352  -0.663594   0.230730
  145  H  4  Y    0.171322   0.867430   0.502343  -0.016292
  146  H  4  Z    0.062022  -0.721247  -0.665974   0.239672
  147  H  4  X    3.077106   2.199502   0.322697   0.477319
  148  H  4  Y   -2.533526  -2.853701   0.022865  -0.976216
  149  H  4  Z    1.924581   2.475127   0.336794   0.441717
  150  H  4  X   -0.794459  -0.581383  -0.091752  -0.113111
  151  H  4  Y    0.655919   0.750598  -0.002964   0.246365
  152  H  4  Z   -0.498240  -0.652190  -0.096329  -0.101741
  153  H  4 XX    2.452033   2.783254  -0.397826  -0.229739
  154  H  4 YY    2.426559   2.814752  -0.410909  -0.220901
  155  H  4 ZZ    2.397373   2.796362  -0.392867  -0.248298
  156  H  4 XY   -0.212883  -0.119841   0.131797  -0.055882
  157  H  4 XZ    0.198970   0.109679  -0.111893   0.019568
  158  H  4 YZ   -0.188016  -0.125755   0.128389  -0.042618
  159  H  4 XX    1.495679   1.814430  -0.197649  -0.172113
  160  H  4 YY    1.509058   1.798338  -0.190808  -0.173754
  161  H  4 ZZ    1.524011   1.807751  -0.199519  -0.163323
  162  H  4 XY    0.051037   0.052108  -0.018491  -0.002900
  163  H  4 XZ   -0.038548  -0.043848   0.007784   0.021283
  164  H  4 YZ    0.027433   0.057616  -0.016689  -0.010687
  165  H  4 XXX  -1.393870  -1.066472  -0.232124  -0.148820
  166  H  4 YYY   1.121944   1.394169   0.054548   0.406092
  167  H  4 ZZZ  -0.817237  -1.204346  -0.238971  -0.129104
  168  H  4 XXY   0.448519   0.582987   0.037941   0.157047
  169  H  4 XXZ  -0.345292  -0.519981  -0.083499  -0.092031
  170  H  4 YYX  -0.565530  -0.441849  -0.109962  -0.053444
  171  H  4 YYZ  -0.366303  -0.489252  -0.114046  -0.045439
  172  H  4 ZZX  -0.593742  -0.460201  -0.083877  -0.084964
  173  H  4 ZZY   0.498159   0.571639   0.032184   0.171967
  174  H  4 XYZ  -0.041151  -0.017499   0.014418  -0.027764
  175  H  5  S   52.242449  34.518093  -2.965672  -3.019321
  176  H  5  S  -11.622885  -7.655049   0.055169   0.137139
  177  H  5  S  -31.821908 -23.746036   0.051105   3.093129
  178  H  5  S  -29.274007 -19.788547   1.473361   1.914106
  179  H  5  X    0.025135   0.833219   0.497892  -0.010545
  180  H  5  Y   -0.224848  -0.583374  -0.669558   0.242485
  181  H  5  Z    0.070133  -0.720267  -0.667038   0.239862
  182  H  5  X   -6.065083  -3.727674   0.021924  -1.012691
  183  H  5  Y    6.609803   3.070048   0.363484   0.440184
  184  H  5  Z    5.824100   3.438493   0.360762   0.439483
  185  H  5  X    1.562244   0.975063  -0.002892   0.254101
  186  H  5  Y   -1.701150  -0.804942  -0.103370  -0.101697
  187  H  5  Z   -1.499485  -0.899521  -0.101596  -0.104826
  188  H  5 XX    5.717625   3.619495  -0.403559  -0.212360
  189  H  5 YY    5.744290   3.587246  -0.381589  -0.255854
  190  H  5 ZZ    5.706691   3.605250  -0.381158  -0.255290
  191  H  5 XY   -0.544362  -0.201778   0.129777  -0.056814
  192  H  5 XZ   -0.527653  -0.209599   0.124432  -0.038064
  193  H  5 YZ    0.538507   0.193838  -0.112094   0.024501
  194  H  5 XX    3.525457   2.289974  -0.182328  -0.189640
  195  H  5 YY    3.511685   2.306382  -0.193057  -0.165762
  196  H  5 ZZ    3.531289   2.297249  -0.193788  -0.164265
  197  H  5 XY    0.094872   0.062960  -0.018277  -0.002782
  198  H  5 XZ    0.078930   0.070320  -0.016160  -0.010198
  199  H  5 YZ   -0.089928  -0.056596   0.007785   0.022794
  200  H  5 XXX   2.611575   1.762635   0.057153   0.414977
  201  H  5 YYY  -2.883481  -1.433912  -0.247703  -0.136873
  202  H  5 ZZZ  -2.490882  -1.617806  -0.248781  -0.130411
  203  H  5 XXY  -1.208960  -0.599688  -0.122171  -0.042427
  204  H  5 XXZ  -1.072721  -0.664124  -0.118494  -0.051502
  205  H  5 YYX   1.091712   0.742458   0.032078   0.172550
  206  H  5 YYZ  -1.051674  -0.694183  -0.089406  -0.076183
  207  H  5 ZZX   1.125534   0.726564   0.034530   0.173170
  208  H  5 ZZY  -1.221269  -0.615003  -0.088644  -0.085675
  209  H  5 XYZ  -0.114077  -0.035703   0.013862  -0.027774
 ...... END OF DENSITY MATRIX CALCULATION ...... 
 STEP CPU TIME =     0.11 TOTAL CPU TIME =       34.2 (    0.6 MIN)
 TOTAL WALL CLOCK TIME=      140.7 SECONDS, CPU UTILIZATION IS  24.32%

     --------------------------------------------------------
     GUGA  CI PROPERTIES...FOR THE WAVEFUNCTION OF STATE    2
               USING THE EXPECTATION VALUE DENSITY
     --------------------------------------------------------

          -----------------
          ENERGY COMPONENTS
          -----------------

         WAVEFUNCTION NORMALIZATION =       1.0000000000

                ONE ELECTRON ENERGY =     -21.1590980405
                TWO ELECTRON ENERGY =       8.4007120480
           NUCLEAR REPULSION ENERGY =       7.0352112604
                                      ------------------
                       TOTAL ENERGY =      -5.7231747321

 ELECTRON-ELECTRON POTENTIAL ENERGY =       8.4007120480
  NUCLEUS-ELECTRON POTENTIAL ENERGY =     -24.9074808888
   NUCLEUS-NUCLEUS POTENTIAL ENERGY =       7.0352112604
                                      ------------------
             TOTAL POTENTIAL ENERGY =      -9.4715575804
               TOTAL KINETIC ENERGY =       3.7483828483
                 VIRIAL RATIO (V/T) =       2.5268383630

          ---------------------------------------
          MULLIKEN AND LOWDIN POPULATION ANALYSES
          ---------------------------------------

               ----- POPULATIONS IN EACH AO -----
                             MULLIKEN      LOWDIN
              1  SI 1  S      1.84090     0.14829
              2  SI 1  S      0.14134     0.02898
              3  SI 1  S     -0.67155     0.09559
              4  SI 1  S      0.33706     0.10465
              5  SI 1  X      0.86173     0.22355
              6  SI 1  Y      0.82378     0.21996
              7  SI 1  Z      0.90559     0.22769
              8  SI 1  X     -0.00479     0.01019
              9  SI 1  Y     -0.00603     0.01028
             10  SI 1  Z     -0.00336     0.01008
             11  SI 1  X      0.01159     0.05600
             12  SI 1  Y      0.02014     0.05686
             13  SI 1  Z      0.00173     0.05501
             14  SI 1  X      0.12232     0.12309
             15  SI 1  Y      0.13930     0.12512
             16  SI 1  Z      0.10295     0.12075
             17  SI 1 XX     -0.01296     0.03438
             18  SI 1 YY     -0.01296     0.03438
             19  SI 1 ZZ     -0.01296     0.03438
             20  SI 1 XY      0.01336     0.00757
             21  SI 1 XZ      0.01270     0.00706
             22  SI 1 YZ      0.01301     0.00730
             23  SI 1 XX      0.00968     0.07724
             24  SI 1 YY      0.00968     0.07724
             25  SI 1 ZZ      0.00968     0.07724
             26  SI 1 XY      0.01557     0.02925
             27  SI 1 XZ      0.01514     0.02742
             28  SI 1 YZ      0.01535     0.02827
             29  SI 1 XX     -0.07165     0.04007
             30  SI 1 YY     -0.07165     0.04007
             31  SI 1 ZZ     -0.07165     0.04007
             32  SI 1 XY      0.02583     0.14367
             33  SI 1 XZ      0.02555     0.12570
             34  SI 1 YZ      0.02573     0.13405
             35  SI 1 XXX    -0.01604     0.06706
             36  SI 1 YYY    -0.01616     0.06801
             37  SI 1 ZZZ    -0.01597     0.06596
             38  SI 1 XXY     0.00205     0.04351
             39  SI 1 XXZ     0.00195     0.04202
             40  SI 1 YYX     0.00201     0.04282
             41  SI 1 YYZ     0.00195     0.04202
             42  SI 1 ZZX     0.00201     0.04282
             43  SI 1 ZZY     0.00205     0.04351
             44  SI 1 XYZ     0.00477     0.00146
             45  SI 1 XXX    -0.07063     0.09732
             46  SI 1 YYY    -0.06671     0.09775
             47  SI 1 ZZZ    -0.07522     0.09684
             48  SI 1 XXY    -0.00561     0.07023
             49  SI 1 XXZ    -0.00652     0.06796
             50  SI 1 YYX    -0.00602     0.06918
             51  SI 1 YYZ    -0.00652     0.06796
             52  SI 1 ZZX    -0.00602     0.06918
             53  SI 1 ZZY    -0.00561     0.07023
             54  SI 1 XYZ     0.00496     0.00989
             55  SI 1XXXX     0.00405     0.03698
             56  SI 1YYYY     0.00405     0.03698
             57  SI 1ZZZZ     0.00405     0.03698
             58  SI 1XXXY     0.01186     0.02268
             59  SI 1XXXZ     0.01147     0.02146
             60  SI 1YYYX     0.01186     0.02268
             61  SI 1YYYZ     0.01165     0.02203
             62  SI 1ZZZX     0.01147     0.02146
             63  SI 1ZZZY     0.01165     0.02203
             64  SI 1XXYY     0.01156     0.05251
             65  SI 1XXZZ     0.01156     0.05251
             66  SI 1YYZZ     0.01156     0.05251
             67  SI 1XXYZ     0.00603     0.02300
             68  SI 1YYXZ     0.00621     0.02259
             69  SI 1ZZXY     0.00582     0.02346
             70  H  2  S      1.51191     0.22388
             71  H  2  S     -0.17906     0.11335
             72  H  2  S     -0.28829     0.16905
             73  H  2  S     -0.05937     0.16576
             74  H  2  X      0.01083     0.02400
             75  H  2  Y      0.01045     0.02486
             76  H  2  Z      0.01124     0.02282
             77  H  2  X      0.00035     0.00214
             78  H  2  Y      0.00032     0.00216
             79  H  2  Z      0.00038     0.00211
             80  H  2  X      0.00037     0.00022
             81  H  2  Y      0.00037     0.00022
             82  H  2  Z      0.00036     0.00022
             83  H  2 XX      0.00137     0.05040
             84  H  2 YY      0.00131     0.05019
             85  H  2 ZZ      0.00145     0.05065
             86  H  2 XY      0.00003     0.00124
             87  H  2 XZ      0.00004     0.00126
             88  H  2 YZ      0.00004     0.00125
             89  H  2 XX      0.00043     0.03905
             90  H  2 YY      0.00043     0.03901
             91  H  2 ZZ      0.00044     0.03911
             92  H  2 XY      0.00002     0.00005
             93  H  2 XZ      0.00002     0.00005
             94  H  2 YZ      0.00002     0.00005
             95  H  2 XXX     0.00059     0.00168
             96  H  2 YYY     0.00059     0.00171
             97  H  2 ZZZ     0.00060     0.00164
             98  H  2 XXY     0.00021     0.00097
             99  H  2 XXZ     0.00021     0.00095
            100  H  2 YYX     0.00021     0.00097
            101  H  2 YYZ     0.00021     0.00095
            102  H  2 ZZX     0.00021     0.00096
            103  H  2 ZZY     0.00021     0.00097
            104  H  2 XYZ     0.00000     0.00008
            105  H  3  S      1.32921     0.19601
            106  H  3  S     -0.20116     0.09799
            107  H  3  S     -0.24506     0.14572
            108  H  3  S     -0.04873     0.15018
            109  H  3  X      0.00512     0.02855
            110  H  3  Y      0.00464     0.02828
            111  H  3  Z      0.00422     0.01290
            112  H  3  X      0.00031     0.00207
            113  H  3  Y      0.00025     0.00205
            114  H  3  Z      0.00010     0.00154
            115  H  3  X      0.00029     0.00021
            116  H  3  Y      0.00029     0.00021
            117  H  3  Z      0.00027     0.00013
            118  H  3 XX      0.00185     0.04371
            119  H  3 YY      0.00182     0.04364
            120  H  3 ZZ      0.00240     0.04571
            121  H  3 XY      0.00004     0.00134
            122  H  3 XZ      0.00006     0.00130
            123  H  3 YZ      0.00005     0.00129
            124  H  3 XX      0.00044     0.03538
            125  H  3 YY      0.00044     0.03537
            126  H  3 ZZ      0.00045     0.03584
            127  H  3 XY      0.00002     0.00004
            128  H  3 XZ      0.00002     0.00004
            129  H  3 YZ      0.00002     0.00004
            130  H  3 XXX     0.00039     0.00169
            131  H  3 YYY     0.00040     0.00167
            132  H  3 ZZZ     0.00052     0.00102
            133  H  3 XXY     0.00015     0.00092
            134  H  3 XXZ     0.00017     0.00072
            135  H  3 YYX     0.00015     0.00093
            136  H  3 YYZ     0.00017     0.00073
            137  H  3 ZZX     0.00015     0.00096
            138  H  3 ZZY     0.00015     0.00096
            139  H  3 XYZ    -0.00001     0.00007
            140  H  4  S      1.31073     0.19319
            141  H  4  S     -0.20338     0.09643
            142  H  4  S     -0.24067     0.14336
            143  H  4  S     -0.04764     0.14861
            144  H  4  X      0.00440     0.02755
            145  H  4  Y      0.00274     0.01393
            146  H  4  Z      0.00501     0.02805
            147  H  4  X      0.00028     0.00201
            148  H  4  Y      0.00001     0.00153
            149  H  4  Z      0.00034     0.00204
            150  H  4  X      0.00028     0.00020
            151  H  4  Y      0.00027     0.00013
            152  H  4  Z      0.00028     0.00021
            153  H  4 XX      0.00196     0.04321
            154  H  4 YY      0.00237     0.04475
            155  H  4 ZZ      0.00200     0.04327
            156  H  4 XY      0.00005     0.00128
            157  H  4 XZ      0.00005     0.00137
            158  H  4 YZ      0.00006     0.00130
            159  H  4 XX      0.00044     0.03505
            160  H  4 YY      0.00045     0.03540
            161  H  4 ZZ      0.00044     0.03506
            162  H  4 XY      0.00002     0.00004
            163  H  4 XZ      0.00002     0.00004
            164  H  4 YZ      0.00002     0.00004
            165  H  4 XXX     0.00038     0.00163
            166  H  4 YYY     0.00050     0.00102
            167  H  4 ZZZ     0.00037     0.00166
            168  H  4 XXY     0.00017     0.00073
            169  H  4 XXZ     0.00014     0.00091
            170  H  4 YYX     0.00014     0.00094
            171  H  4 YYZ     0.00014     0.00095
            172  H  4 ZZX     0.00015     0.00090
            173  H  4 ZZY     0.00017     0.00072
            174  H  4 XYZ    -0.00001     0.00007
            175  H  5  S      1.31791     0.19429
            176  H  5  S     -0.20245     0.09704
            177  H  5  S     -0.24225     0.14428
            178  H  5  S     -0.04807     0.14921
            179  H  5  X      0.00340     0.01348
            180  H  5  Y      0.00422     0.02768
            181  H  5  Z      0.00528     0.02846
            182  H  5  X      0.00005     0.00154
            183  H  5  Y      0.00024     0.00201
            184  H  5  Z      0.00036     0.00207
            185  H  5  X      0.00027     0.00013
            186  H  5  Y      0.00029     0.00020
            187  H  5  Z      0.00029     0.00021
            188  H  5 XX      0.00238     0.04514
            189  H  5 YY      0.00187     0.04334
            190  H  5 ZZ      0.00195     0.04346
            191  H  5 XY      0.00005     0.00128
            192  H  5 XZ      0.00006     0.00131
            193  H  5 YZ      0.00004     0.00136
            194  H  5 XX      0.00045     0.03558
            195  H  5 YY      0.00044     0.03517
            196  H  5 ZZ      0.00044     0.03519
            197  H  5 XY      0.00002     0.00004
            198  H  5 XZ      0.00002     0.00004
            199  H  5 YZ      0.00002     0.00004
            200  H  5 XXX     0.00050     0.00102
            201  H  5 YYY     0.00039     0.00163
            202  H  5 ZZZ     0.00038     0.00169
            203  H  5 XXY     0.00015     0.00095
            204  H  5 XXZ     0.00014     0.00096
            205  H  5 YYX     0.00017     0.00073
            206  H  5 YYZ     0.00014     0.00092
            207  H  5 ZZX     0.00017     0.00072
            208  H  5 ZZY     0.00015     0.00090
            209  H  5 XYZ    -0.00001     0.00007

          ----- MULLIKEN ATOMIC OVERLAP POPULATIONS -----
          (OFF-DIAGONAL ELEMENTS NEED TO BE MULTIPLIED BY 2)

             1           2           3           4           5

    1    6.4394639
    2    0.1723117   0.7797151
    3   -0.6845665   0.0659039   2.0327653
    4   -0.7707562  -0.0118106  -0.2716603   2.1593037
    5   -0.7367454   0.0224149  -0.2828462  -0.2623741   2.1090095

          TOTAL MULLIKEN AND LOWDIN ATOMIC POPULATIONS
       ATOM         MULL.POP.    CHARGE          LOW.POP.     CHARGE
    1 SI            4.419708   -0.419708         4.227068   -0.227068
    2 H             1.028535   -0.028535         1.033963   -0.033963
    3 H             0.859596    0.140404         0.919228    0.080772
    4 H             0.842703    0.157297         0.907602    0.092398
    5 H             0.849459    0.150541         0.912140    0.087860

          ---------------------
          ELECTROSTATIC MOMENTS
          ---------------------

 POINT   1           X           Y           Z (BOHR)    CHARGE
                 0.000000    0.000000    0.000000        0.00 (A.U.)
         DX          DY          DZ         /D/  (DEBYE)
    -1.176248   -1.086127   -1.315069    2.071869
 ...... END OF PROPERTY EVALUATION ......
 STEP CPU TIME =     0.10 TOTAL CPU TIME =       34.3 (    0.6 MIN)
 TOTAL WALL CLOCK TIME=      141.4 SECONDS, CPU UTILIZATION IS  24.27%
            110354945  WORDS OF DYNAMIC MEMORY USED
 EXECUTION OF GAMESS TERMINATED NORMALLY Sun May 31 21:10:57 2020
 DDI: 263640 bytes (0.3 MB / 0 MWords) used by master data server.

 ----------------------------------------
 CPU timing information for all processes
 ========================================
 0: 28.200 + 6.528 = 34.728
 ----------------------------------------
 ddikick.x: exited gracefully.
----- accounting info -----
Files used on the master node gwang18-p3 were:
-rw-rw-r-- 1 gwang18 gwang18     795798 5月  31 21:10 /home/gwang18/research/projects/si_gap/sih4/cis/pbe/qz/cis/30orb/ci.dat
-rw-rw-r-- 1 gwang18 gwang18     712632 5月  31 21:08 /home/gwang18/research/projects/si_gap/sih4/cis/pbe/qz/cis/30orb/ci.F05
-rw-rw-r-- 1 gwang18 gwang18 2505462688 5月  31 21:10 /home/gwang18/research/projects/si_gap/sih4/cis/pbe/qz/cis/30orb/ci.F08
-rw-rw-r-- 1 gwang18 gwang18     722472 5月  31 21:10 /home/gwang18/research/projects/si_gap/sih4/cis/pbe/qz/cis/30orb/ci.F09
-rw-rw-r-- 1 gwang18 gwang18   11222960 5月  31 21:10 /home/gwang18/research/projects/si_gap/sih4/cis/pbe/qz/cis/30orb/ci.F10
-rw-rw-r-- 1 gwang18 gwang18     316592 5月  31 21:09 /home/gwang18/research/projects/si_gap/sih4/cis/pbe/qz/cis/30orb/ci.F11
-rw-rw-r-- 1 gwang18 gwang18      53336 5月  31 21:10 /home/gwang18/research/projects/si_gap/sih4/cis/pbe/qz/cis/30orb/ci.F12
-rw-rw-r-- 1 gwang18 gwang18     400008 5月  31 21:10 /home/gwang18/research/projects/si_gap/sih4/cis/pbe/qz/cis/30orb/ci.F14
-rw-rw-r-- 1 gwang18 gwang18     346808 5月  31 21:10 /home/gwang18/research/projects/si_gap/sih4/cis/pbe/qz/cis/30orb/ci.F15
-rw-rw-r-- 1 gwang18 gwang18   14201336 5月  31 21:10 /home/gwang18/research/projects/si_gap/sih4/cis/pbe/qz/cis/30orb/ci.F16
-rw-rw-r-- 1 gwang18 gwang18     712632 5月  31 21:08 /home/gwang18/research/projects/si_gap/sih4/cis/pbe/qz/cis/30orb/ci.inp
-rw-rw-r-- 1 gwang18 gwang18    1997586 5月  31 21:11 /home/gwang18/research/projects/si_gap/sih4/cis/pbe/qz/cis/30orb/ci.out
2020年 05月 31日 星期日 21:11:02 EDT
0.0u 0.0s 2:27.72 0.0% 0+0k 6704+1408io 62pf+0w
