----- GAMESS execution script 'rungms' -----
This job is running on host gwang18-p3
under operating system Linux at 2020年 05月 31日 星期日 17:28:58 EDT
Available scratch disk space (Kbyte units) at beginning of the job is
Filesystem     1K-blocks      Used Available Use% Mounted on
/dev/sda6      216112148 162727628  42383536  80% /
GAMESS temporary binary files will be written to /home/gwang18/research/projects/si_gap/sih4/cis/pbe/qz/cis/20orb
GAMESS supplementary output files will be written to /home/gwang18/research/projects/si_gap/sih4/cis/pbe/qz/cis/20orb
Copying input file hf.inp to your run's scratch directory...

 Distributed Data Interface kickoff program.
 Initiating 1 compute processes on 1 nodes to run the following command:
 /home/gwang18/software/gamess/gamess.00.x hf 

          ******************************************************
          *         GAMESS VERSION =  5 DEC 2014 (R1)          *
          *             FROM IOWA STATE UNIVERSITY             *
          * M.W.SCHMIDT, K.K.BALDRIDGE, J.A.BOATZ, S.T.ELBERT, *
          *   M.S.GORDON, J.H.JENSEN, S.KOSEKI, N.MATSUNAGA,   *
          *          K.A.NGUYEN, S.J.SU, T.L.WINDUS,           *
          *       TOGETHER WITH M.DUPUIS, J.A.MONTGOMERY       *
          *         J.COMPUT.CHEM.  14, 1347-1363(1993)        *
          **************** 64 BIT LINUX VERSION ****************

  SINCE 1993, STUDENTS AND POSTDOCS WORKING AT IOWA STATE UNIVERSITY
  AND ALSO IN THEIR VARIOUS JOBS AFTER LEAVING ISU HAVE MADE IMPORTANT
  CONTRIBUTIONS TO THE CODE:
     IVANA ADAMOVIC, CHRISTINE AIKENS, YURI ALEXEEV, POOJA ARORA,
     ANDREY ASADCHEV, ROB BELL, PRADIPTA BANDYOPADHYAY, JONATHAN BENTZ,
     BRETT BODE, KURT BRORSEN, CALEB CARLIN, GALINA CHABAN, WEI CHEN,
     CHEOL HO CHOI, PAUL DAY, ALBERT DEFUSCO, NUWAN DESILVA, TIM DUDLEY,
     DMITRI FEDOROV, GRAHAM FLETCHER, MARK FREITAG, KURT GLAESEMANN,
     DAN KEMP, GRANT MERRILL, NORIYUKI MINEZAWA, JONATHAN MULLIN,
     TAKESHI NAGATA, SEAN NEDD, HEATHER NETZLOFF, BOSILJKA NJEGIC, RYAN OLSON,
     MIKE PAK, SPENCER PRUITT, LUKE ROSKOP, JIM SHOEMAKER, LYUDMILA SLIPCHENKO,
     TONY SMITH, SAROM SOK, JIE SONG, TETSUYA TAKETSUGU, SIMON WEBB,
     PENG XU, SOOHAENG YOO, FEDERICO ZAHARIEV

  ADDITIONAL CODE HAS BEEN PROVIDED BY COLLABORATORS IN OTHER GROUPS:
     IOWA STATE UNIVERSITY:
          JOE IVANIC, AARON WEST, LAIMUTIS BYTAUTAS, KLAUS RUEDENBERG
     UNIVERSITY OF TOKYO: KIMIHIKO HIRAO, TAKAHITO NAKAJIMA,
          TAKAO TSUNEDA, MUNEAKI KAMIYA, SUSUMU YANAGISAWA,
          KIYOSHI YAGI, MAHITO CHIBA, SEIKEN TOKURA, NAOAKI KAWAKAMI
     UNIVERSITY OF AARHUS: FRANK JENSEN
     UNIVERSITY OF IOWA: VISVALDAS KAIRYS, HUI LI
     NATIONAL INST. OF STANDARDS AND TECHNOLOGY: WALT STEVENS, DAVID GARMER
     UNIVERSITY OF PISA: BENEDETTA MENNUCCI, JACOPO TOMASI
     UNIVERSITY OF MEMPHIS: HENRY KURTZ, PRAKASHAN KORAMBATH
     UNIVERSITY OF ALBERTA: TOBY ZENG, MARIUSZ KLOBUKOWSKI
     UNIVERSITY OF NEW ENGLAND: MARK SPACKMAN
     MIE UNIVERSITY: HIROAKI UMEDA
     NAT. INST. OF ADVANCED INDUSTRIAL SCIENCE AND TECHNOLOGY: KAZUO KITAURA
     MICHIGAN STATE UNIVERSITY:
          KAROL KOWALSKI, MARTA WLOCH, JEFFREY GOUR, JESSE LUTZ,
          WEI LI, PIOTR PIECUCH
     UNIVERSITY OF SILESIA: MONIKA MUSIAL, STANISLAW KUCHARSKI
     FACULTES UNIVERSITAIRES NOTRE-DAME DE LA PAIX:
          OLIVIER QUINET, BENOIT CHAMPAGNE
     UNIVERSITY OF CALIFORNIA - SANTA BARBARA: BERNARD KIRTMAN
     INSTITUTE FOR MOLECULAR SCIENCE:
          KAZUYA ISHIMURA, MICHIO KATOUDA, AND SHIGERU NAGASE
     UNIVERSITY OF NOTRE DAME: ANNA POMOGAEVA, DAN CHIPMAN
     KYUSHU UNIVERSITY:
          HARUYUKI NAKANO,
          FENG LONG GU, JACEK KORCHOWIEC, MARCIN MAKOWSKI, AND YURIKO AOKI,
          HIROTOSHI MORI AND EISAKU MIYOSHI
     PENNSYLVANIA STATE UNIVERSITY:
          TZVETELIN IORDANOV, CHET SWALINA, JONATHAN SKONE,
          SHARON HAMMES-SCHIFFER
     WASEDA UNIVERSITY:
          MASATO KOBAYASHI, TOMOKO AKAMA, TSUGUKI TOUMA,
          TAKESHI YOSHIKAWA, YASUHIRO IKABATA, HIROMI NAKAI
     NANJING UNIVERSITY: SHUHUA LI
     UNIVERSITY OF NEBRASKA:
          PEIFENG SU, DEJUN SI, NANDUN THELLAMUREGE, YALI WANG, HUI LI
     UNIVERSITY OF ZURICH: ROBERTO PEVERATI, KIM BALDRIDGE
     N. COPERNICUS UNIVERSITY AND JACKSON STATE UNIVERSITY:
          MARIA BARYSZ
     UNIVERSITY OF COPENHAGEN: CASPER STEINMANN
     TOKYO INSTITUTE OF TECHNOLOGY: HIROYA NAKATA
     NAGOYA UNIVERSITY: YOSHIO NISHIMOTO, STEPHAN IRLE

 EXECUTION OF GAMESS BEGUN Sun May 31 17:28:58 2020

            ECHO OF THE FIRST FEW INPUT CARDS -
 INPUT CARD> $CONTRL                                                                        
 INPUT CARD>     SCFTYP=RHF                                                                 
 INPUT CARD>     DFTTYP=PBE                                                                 
 INPUT CARD>     MULT=1                                                                     
 INPUT CARD>     ICHARG=0                                                                   
 INPUT CARD>     RUNTYP=energy                                                              
 INPUT CARD>     MAXIT=200                                                                  
 INPUT CARD>     PP=READ                                                                    
 INPUT CARD>     UNITS=ANGS                                                                 
 INPUT CARD> !    ICUT=12                                                                   
 INPUT CARD> $END                                                                           
 INPUT CARD>                                                                                
 INPUT CARD> $SYSTEM                                                                        
 INPUT CARD>    MWORDS=1000                                                                 
 INPUT CARD>    MEMDDI=1000                                                                 
 INPUT CARD> $END                                                                           
 INPUT CARD>                                                                                
 INPUT CARD> $GUESS                                                                         
 INPUT CARD>    GUESS=HUCKEL                                                                
 INPUT CARD>!    GUESS=MOREAD                                                               
 INPUT CARD>!    NORB=94                                                                    
 INPUT CARD>!    PUNMO=.T.                                                                  
 INPUT CARD> $END                                                                           
 INPUT CARD>                                                                                
 INPUT CARD> $SCF FDIFF=.F. DAMP=.T. SOSCF=.F. SHIFT=.T. RSTRCT=.T. DIIS=.T.  $end          
 INPUT CARD>                                                                                
 INPUT CARD>                                                                                
 INPUT CARD>! $MCSCF                                                                        
 INPUT CARD>!      CISTEP=GUGA                                                              
 INPUT CARD>! $END                                                                          
 INPUT CARD>                                                                                
 INPUT CARD>! $CIDRT                                                                        
 INPUT CARD>!      NPRT=2                                                                   
 INPUT CARD>!      NFZC=0                                                                   
 INPUT CARD>!      NDOC=4                                                                   
 INPUT CARD>! !     NAOS=1                                                                  
 INPUT CARD>! !     NBOS=1                                                                  
 INPUT CARD>!      NVAL=30                                                                  
 INPUT CARD>!      IEXCIT=1                                                                 
 INPUT CARD>!      GROUP=C1                                                                 
 INPUT CARD>! $END                                                                          
 INPUT CARD>!                                                                               
 INPUT CARD>! $GUGDIA NSTATE=2 $END                                                         
 INPUT CARD>!                                                                               
 INPUT CARD>! $GUGDM NFLGDM(1)=1,1 IROOT=2 $END                                             
 INPUT CARD>!                                                                               
 INPUT CARD>! $GUGDIA PRTTOL=0.0001 $END                                                    
 INPUT CARD>                                                                                
 INPUT CARD>! $CIS                                                                          
 INPUT CARD>!      HAMTYP=SAPS MULT=1 NACORE=0 NSTATE=1 IROOT=1                             
 1000000000 WORDS OF MEMORY AVAILABLE


     RUN TITLE
     ---------
 Silane CIS calculation                                                          

 THE POINT GROUP OF THE MOLECULE IS C1      
 THE ORDER OF THE PRINCIPAL AXIS IS     0
 *** WARNING! ATOM   1 SHELL    5 TYPE P HAS NORMALIZATION   0.99999860

 ATOM      ATOMIC                      COORDINATES (BOHR)
           CHARGE         X                   Y                   Z
 SI         14.0     0.0000000000        0.0000000000        0.0000000000
 H           1.0     1.6145818839        1.6145818839        1.6145818839
 H           1.0    -1.6145818839       -1.6145818839        1.6145818839
 H           1.0    -1.6145818839        1.6145818839       -1.6145818839
 H           1.0     1.6145818839       -1.6145818839       -1.6145818839

          INTERNUCLEAR DISTANCES (ANGS.)
          ------------------------------

                1 SI         2 H          3 H          4 H          5 H     

   1 SI      0.0000000    1.4798642 *  1.4798642 *  1.4798642 *  1.4798642 *
   2 H       1.4798642 *  0.0000000    2.4166081 *  2.4166081 *  2.4166081 *
   3 H       1.4798642 *  2.4166081 *  0.0000000    2.4166081 *  2.4166081 *
   4 H       1.4798642 *  2.4166081 *  2.4166081 *  0.0000000    2.4166081 *
   5 H       1.4798642 *  2.4166081 *  2.4166081 *  2.4166081 *  0.0000000  

  * ... LESS THAN  3.000


     ATOMIC BASIS SET
     ----------------
 THE CONTRACTED PRIMITIVE FUNCTIONS HAVE BEEN UNNORMALIZED
 THE CONTRACTED BASIS FUNCTIONS ARE NOW NORMALIZED TO UNITY

  SHELL TYPE  PRIMITIVE        EXPONENT          CONTRACTION COEFFICIENT(S)

 SI        

      1   S       1             9.9982740    0.002893997896
      1   S       2             5.5176440   -0.014522989441
      1   S       3             3.0449650    0.077633943557
      1   S       4             1.6803930   -0.224021837126
      1   S       5             0.9273410   -0.149079891612
      1   S       6             0.5117620    0.085943937515
      1   S       7             0.2824210    0.355393741613
      1   S       8             0.1558570    0.445218676307
      1   S       9             0.0860110    0.267229805712
      1   S      10             0.0474660    0.060786955805

      2   S      11             0.4885040    1.000000000000

      3   S      12             0.1994570    1.000000000000

      4   S      13             0.0814390    1.000000000000

      5   P      14             5.0278680   -0.003241995466
      5   P      15             2.8677510    0.010648985106
      5   P      16             1.6356830   -0.049760930401
      5   P      17             0.9329470   -0.000016999976
      5   P      18             0.5321260    0.106059851657
      5   P      19             0.3035090    0.236201669632
      5   P      20             0.1731130    0.310664565483
      5   P      21             0.0987390    0.294695587818
      5   P      22             0.0563180    0.153897784748
      5   P      23             0.0321220    0.042336940785

      6   P      24             1.2257900    1.000000000000

      7   P      25             0.5013640    1.000000000000

      8   P      26             0.2050640    1.000000000000

      9   D      27             0.9970030    1.000000000000

     10   D      28             0.3659420    1.000000000000

     11   D      29             0.1343160    1.000000000000

     12   F      30             0.5491160    1.000000000000

     13   F      31             0.2149980    1.000000000000

     14   G      32             0.4595470    1.000000000000

 H         

     15   S      33            23.8431850    0.004114899701
     15   S      34            10.2124430    0.010464399240
     15   S      35             4.3741640    0.028011097966
     15   S      36             1.8735290    0.075886194491
     15   S      37             0.8024650    0.182106186780
     15   S      38             0.3437090    0.348521374698
     15   S      39             0.1472170    0.378231272542
     15   S      40             0.0630550    0.116424091548

     16   S      41             0.0818560    1.000000000000

     17   S      42             0.2332540    1.000000000000

     18   S      43             0.6646730    1.000000000000

     19   P      44             0.2844690    1.000000000000

     20   P      45             0.8471590    1.000000000000

     21   P      46             2.5228680    1.000000000000

     22   D      47             0.6652790    1.000000000000

     23   D      48             2.0487390    1.000000000000

     24   F      49             1.4214600    1.000000000000

 H         

     25   S      50            23.8431850    0.004114899701
     25   S      51            10.2124430    0.010464399240
     25   S      52             4.3741640    0.028011097966
     25   S      53             1.8735290    0.075886194491
     25   S      54             0.8024650    0.182106186780
     25   S      55             0.3437090    0.348521374698
     25   S      56             0.1472170    0.378231272542
     25   S      57             0.0630550    0.116424091548

     26   S      58             0.0818560    1.000000000000

     27   S      59             0.2332540    1.000000000000

     28   S      60             0.6646730    1.000000000000

     29   P      61             0.2844690    1.000000000000

     30   P      62             0.8471590    1.000000000000

     31   P      63             2.5228680    1.000000000000

     32   D      64             0.6652790    1.000000000000

     33   D      65             2.0487390    1.000000000000

     34   F      66             1.4214600    1.000000000000

 H         

     35   S      67            23.8431850    0.004114899701
     35   S      68            10.2124430    0.010464399240
     35   S      69             4.3741640    0.028011097966
     35   S      70             1.8735290    0.075886194491
     35   S      71             0.8024650    0.182106186780
     35   S      72             0.3437090    0.348521374698
     35   S      73             0.1472170    0.378231272542
     35   S      74             0.0630550    0.116424091548

     36   S      75             0.0818560    1.000000000000

     37   S      76             0.2332540    1.000000000000

     38   S      77             0.6646730    1.000000000000

     39   P      78             0.2844690    1.000000000000

     40   P      79             0.8471590    1.000000000000

     41   P      80             2.5228680    1.000000000000

     42   D      81             0.6652790    1.000000000000

     43   D      82             2.0487390    1.000000000000

     44   F      83             1.4214600    1.000000000000

 H         

     45   S      84            23.8431850    0.004114899701
     45   S      85            10.2124430    0.010464399240
     45   S      86             4.3741640    0.028011097966
     45   S      87             1.8735290    0.075886194491
     45   S      88             0.8024650    0.182106186780
     45   S      89             0.3437090    0.348521374698
     45   S      90             0.1472170    0.378231272542
     45   S      91             0.0630550    0.116424091548

     46   S      92             0.0818560    1.000000000000

     47   S      93             0.2332540    1.000000000000

     48   S      94             0.6646730    1.000000000000

     49   P      95             0.2844690    1.000000000000

     50   P      96             0.8471590    1.000000000000

     51   P      97             2.5228680    1.000000000000

     52   D      98             0.6652790    1.000000000000

     53   D      99             2.0487390    1.000000000000

     54   F     100             1.4214600    1.000000000000

 TOTAL NUMBER OF BASIS SET SHELLS             =   54
 NUMBER OF CARTESIAN GAUSSIAN BASIS FUNCTIONS =  209
 NUMBER OF ELECTRONS                          =   18
 CHARGE OF MOLECULE                           =    0
 SPIN MULTIPLICITY                            =    1
 NUMBER OF OCCUPIED ORBITALS (ALPHA)          =    9
 NUMBER OF OCCUPIED ORBITALS (BETA )          =    9
 TOTAL NUMBER OF ATOMS                        =    5
 THE NUCLEAR REPULSION ENERGY IS       21.3386114148
 NOTE THIS RUN IS USING CORE POTENTIALS, AND THE NUMBER OF ELECTRONS,
 OCCUPIED ORBITALS, AND NUCLEAR REPULSION ENERGY WILL BE ADJUSTED BELOW
 AFTER REMOVAL OF THE CORE CHARGES.

     LEBEDEV GRID-BASED DFT OPTIONS
     ------------------------------
     DFTTYP=PBE     
     NRAD  =      96     NLEB  =     302
     NRAD0 =      24     NLEB0 =     110
     SWOFF =    5.00E-03 (PURE SCF -> DFT)
     SWITCH=    3.00E-04 (COARSE -> TIGHT GRID)
     THRESH=    0.00E+00 GTHRE=    1.00E+00

 GRIMME'S EMPIRICAL DISPERSION CORRECTION= F

     $CONTRL OPTIONS
     ---------------
 SCFTYP=RHF          RUNTYP=ENERGY       EXETYP=RUN     
 MPLEVL=       0     CITYP =NONE         CCTYP =NONE         VBTYP =NONE    
 DFTTYP=PBE          TDDFT =NONE    
 MULT  =       1     ICHARG=       0     NZVAR =       0     COORD =UNIQUE  
 PP    =READ         RELWFN=NONE         LOCAL =NONE         NUMGRD=       F
 ISPHER=      -1     NOSYM =       0     MAXIT =     200     UNITS =ANGS    
 PLTORB=       F     MOLPLT=       F     AIMPAC=       F     FRIEND=        
 NPRINT=       7     IREST =       0     GEOM  =INPUT   
 NORMF =       0     NORMP =       0     ITOL  =      20     ICUT  =       9
 INTTYP=BEST         GRDTYP=BEST         QMTTOL= 1.0E-06

     $SYSTEM OPTIONS
     ---------------
  REPLICATED MEMORY=  1000000000 WORDS (ON EVERY NODE).
 DISTRIBUTED MEMDDI=        1000 MILLION WORDS IN AGGREGATE,
 MEMDDI DISTRIBUTED OVER   1 PROCESSORS IS  1000000000 WORDS/PROCESSOR.
 TOTAL MEMORY REQUESTED ON EACH PROCESSOR=  2000000000 WORDS.
 TIMLIM=      525600.00 MINUTES, OR     365.0 DAYS.
 PARALL= F  BALTYP=  DLB     KDIAG=    0  COREFL= F
 MXSEQ2=     300 MXSEQ3=     150  mem10=         0

          --------------
          ECP POTENTIALS
          --------------

 PARAMETERS FOR "SI-CCECP" ON ATOM    1 WITH ZCORE  10 AND LMAX  2 ARE
 FOR L= 2      COEFF    N           ZETA
    1        4.00000    1        5.16832
    2       20.67326    3        8.86169
    3      -14.81817    2        3.93347
 FOR L= 0      COEFF    N           ZETA
    1       14.83276    2        9.44702
    2       26.34966    2        2.55381
 FOR L= 1      COEFF    N           ZETA
    1        7.62140    2        3.66000
    2       10.33158    2        1.90365

 PARAMETERS FOR "H-CCECP " ON ATOM    2 WITH ZCORE   0 AND LMAX  1 ARE
 FOR L= 1      COEFF    N           ZETA
    1        1.00000    1       21.24360
    2       21.24360    3       21.24360
    3      -10.85192    2       21.77697
 FOR L= 0      COEFF    N           ZETA
    1        0.00000    2        1.00000

 PARAMETERS FOR "H-CCECP " ON ATOM    3 ARE THE SAME AS ATOM   2

 PARAMETERS FOR "H-CCECP " ON ATOM    4 ARE THE SAME AS ATOM   2

 PARAMETERS FOR "H-CCECP " ON ATOM    5 ARE THE SAME AS ATOM   2

 THE ECP RUN REMOVES   10 CORE ELECTRONS, AND THE SAME NUMBER OF PROTONS.
 NUMBER OF ELECTRONS KEPT IN THE CALCULATION IS =    8
 NUMBER OF OCCUPIED ORBITALS (ALPHA) KEPT IS    =    4
 NUMBER OF OCCUPIED ORBITALS (BETA ) KEPT IS    =    4
 THE ADJUSTED NUCLEAR REPULSION ENERGY=        7.0352112604
          ECP ANGULAR INTS.........     0.04 SECONDS

          ----------------
          PROPERTIES INPUT
          ----------------

     MOMENTS            FIELD           POTENTIAL          DENSITY
 IEMOM =       1   IEFLD =       0   IEPOT =       0   IEDEN =       0
 WHERE =COMASS     WHERE =NUCLEI     WHERE =NUCLEI     WHERE =NUCLEI  
 OUTPUT=BOTH       OUTPUT=BOTH       OUTPUT=BOTH       OUTPUT=BOTH    
 IEMINT=       0   IEFINT=       0                     IEDINT=       0
                                                       MORB  =       0
          EXTRAPOLATION IN EFFECT
          DAMPING IN EFFECT
          LEVEL SHIFTING IN EFFECT
          RESTRICTION OF ORBITAL MIXING IN EFFECT
          DIIS IN EFFECT
 ORBITAL PRINTING OPTION: NPREO=     1   209     2     1

     -------------------------------
     INTEGRAL TRANSFORMATION OPTIONS
     -------------------------------
     NWORD  =            0
     CUTOFF = 1.0E-09     MPTRAN =       0
     DIRTRF =       F     AOINTS =DUP     

          ----------------------
          INTEGRAL INPUT OPTIONS
          ----------------------
 NOPK  =       1 NORDER=       0 SCHWRZ=       F

     ------------------------------------------
     THE POINT GROUP IS C1 , NAXIS= 0, ORDER= 1
     ------------------------------------------

     DIMENSIONS OF THE SYMMETRY SUBSPACES ARE
 A   =  209

 ..... DONE SETTING UP THE RUN .....
 STEP CPU TIME =     0.07 TOTAL CPU TIME =        0.1 (    0.0 MIN)
 TOTAL WALL CLOCK TIME=        0.2 SECONDS, CPU UTILIZATION IS  30.43%

          ********************
          1 ELECTRON INTEGRALS
          ********************
 TIME TO DO ORDINARY INTEGRALS=      0.01
 TIME TO DO      ECP INTEGRALS=      0.10
 ...... END OF ONE-ELECTRON INTEGRALS ......
 STEP CPU TIME =     0.11 TOTAL CPU TIME =        0.2 (    0.0 MIN)
 TOTAL WALL CLOCK TIME=        0.3 SECONDS, CPU UTILIZATION IS  51.43%

          -------------
          GUESS OPTIONS
          -------------
          GUESS =HUCKEL            NORB  =       0          NORDER=       0
          MIX   =       F          PRTMO =       F          PUNMO =       F
          TOLZ  = 1.0E-08          TOLE  = 1.0E-05
          SYMDEN=       F          PURIFY=       F

 INITIAL GUESS ORBITALS GENERATED BY HUCKEL   ROUTINE.
 HUCKEL GUESS REQUIRES    313733 WORDS.

 SYMMETRIES FOR INITIAL GUESS ORBITALS FOLLOW.   BOTH SET(S).
     4 ORBITALS ARE OCCUPIED (    0 CORE ORBITALS).
     1=A        2=A        3=A        4=A        5=A        6=A        7=A   
     8=A        9=A       10=A       11=A       12=A       13=A       14=A   
 ...... END OF INITIAL ORBITAL SELECTION ......
 STEP CPU TIME =     0.09 TOTAL CPU TIME =        0.3 (    0.0 MIN)
 TOTAL WALL CLOCK TIME=        0.5 SECONDS, CPU UTILIZATION IS  56.25%

                    ----------------------
                    AO INTEGRAL TECHNOLOGY
                    ----------------------
     S,P,L SHELL ROTATED AXIS INTEGRALS, REPROGRAMMED BY
        KAZUYA ISHIMURA (IMS) AND JOSE SIERRA (SYNSTAR).
     S,P,D,L SHELL ROTATED AXIS INTEGRALS PROGRAMMED BY
        KAZUYA ISHIMURA (INSTITUTE FOR MOLECULAR SCIENCE).
     S,P,D,F,G SHELL TO TOTAL QUARTET ANGULAR MOMENTUM SUM 5,
        ERIC PROGRAM BY GRAHAM FLETCHER (ELORET AND NASA ADVANCED
        SUPERCOMPUTING DIVISION, AMES RESEARCH CENTER).
     S,P,D,F,G,L SHELL GENERAL RYS QUADRATURE PROGRAMMED BY
        MICHEL DUPUIS (PACIFIC NORTHWEST NATIONAL LABORATORY).

          --------------------
          2 ELECTRON INTEGRALS
          --------------------

 THE -PK- OPTION IS OFF, THE INTEGRALS ARE NOT IN SUPERMATRIX FORM.
 STORING   15000 INTEGRALS/RECORD ON DISK, USING 12 BYTES/INTEGRAL.
 TWO ELECTRON INTEGRAL EVALUATION REQUIRES  141210 WORDS OF MEMORY.
 II,JST,KST,LST =  1  1  1  1 NREC =         1 INTLOC =    1
 II,JST,KST,LST =  2  1  1  1 NREC =         1 INTLOC =    2
 II,JST,KST,LST =  3  1  1  1 NREC =         1 INTLOC =    7
 II,JST,KST,LST =  4  1  1  1 NREC =         1 INTLOC =   22
 II,JST,KST,LST =  5  1  1  1 NREC =         1 INTLOC =   56
 II,JST,KST,LST =  6  1  1  1 NREC =         1 INTLOC =  125
 II,JST,KST,LST =  7  1  1  1 NREC =         1 INTLOC =  329
 II,JST,KST,LST =  8  1  1  1 NREC =         1 INTLOC =  776
 II,JST,KST,LST =  9  1  1  1 NREC =         1 INTLOC = 1637
 II,JST,KST,LST = 10  1  1  1 NREC =         1 INTLOC = 4868
 II,JST,KST,LST = 11  1  1  1 NREC =         1 INTLOC =12014
 II,JST,KST,LST = 12  1  1  1 NREC =         2 INTLOC =10415
 II,JST,KST,LST = 13  1  1  1 NREC =         5 INTLOC = 6170
 II,JST,KST,LST = 14  1  1  1 NREC =        10 INTLOC =10796
 II,JST,KST,LST = 15  1  1  1 NREC =        26 INTLOC = 3467
 II,JST,KST,LST = 16  1  1  1 NREC =        37 INTLOC =10002
 II,JST,KST,LST = 17  1  1  1 NREC =        49 INTLOC = 8993
 II,JST,KST,LST = 18  1  1  1 NREC =        62 INTLOC =  653
 II,JST,KST,LST = 19  1  1  1 NREC =        75 INTLOC =  198
 II,JST,KST,LST = 20  1  1  1 NREC =       117 INTLOC = 3066
 II,JST,KST,LST = 21  1  1  1 NREC =       164 INTLOC = 9315
 II,JST,KST,LST = 22  1  1  1 NREC =       217 INTLOC = 9642
 II,JST,KST,LST = 23  1  1  1 NREC =       342 INTLOC =  348
 II,JST,KST,LST = 24  1  1  1 NREC =       493 INTLOC = 6480
 II,JST,KST,LST = 25  1  1  1 NREC =       814 INTLOC = 3048
 II,JST,KST,LST = 26  1  1  1 NREC =       851 INTLOC =14828
 II,JST,KST,LST = 27  1  1  1 NREC =       890 INTLOC =11980
 II,JST,KST,LST = 28  1  1  1 NREC =       930 INTLOC =10277
 II,JST,KST,LST = 29  1  1  1 NREC =       971 INTLOC = 9072
 II,JST,KST,LST = 30  1  1  1 NREC =      1100 INTLOC =11469
 II,JST,KST,LST = 31  1  1  1 NREC =      1240 INTLOC = 1557
 II,JST,KST,LST = 32  1  1  1 NREC =      1373 INTLOC = 8676
 II,JST,KST,LST = 33  1  1  1 NREC =      1706 INTLOC = 8384
 II,JST,KST,LST = 34  1  1  1 NREC =      2061 INTLOC = 9707
 II,JST,KST,LST = 35  1  1  1 NREC =      2797 INTLOC = 5964
 II,JST,KST,LST = 36  1  1  1 NREC =      2886 INTLOC = 1112
 II,JST,KST,LST = 37  1  1  1 NREC =      2976 INTLOC = 8727
 II,JST,KST,LST = 38  1  1  1 NREC =      3068 INTLOC =13630
 II,JST,KST,LST = 39  1  1  1 NREC =      3162 INTLOC = 1934
 II,JST,KST,LST = 40  1  1  1 NREC =      3455 INTLOC =  232
 II,JST,KST,LST = 41  1  1  1 NREC =      3761 INTLOC = 4307
 II,JST,KST,LST = 42  1  1  1 NREC =      4024 INTLOC =12253
 II,JST,KST,LST = 43  1  1  1 NREC =      4729 INTLOC =   72
 II,JST,KST,LST = 44  1  1  1 NREC =      5411 INTLOC = 8913
 II,JST,KST,LST = 45  1  1  1 NREC =      6823 INTLOC =13487
 II,JST,KST,LST = 46  1  1  1 NREC =      6995 INTLOC = 5865
 II,JST,KST,LST = 47  1  1  1 NREC =      7170 INTLOC =  101
 II,JST,KST,LST = 48  1  1  1 NREC =      7347 INTLOC = 1265
 II,JST,KST,LST = 49  1  1  1 NREC =      7522 INTLOC =13524
 II,JST,KST,LST = 50  1  1  1 NREC =      8077 INTLOC =14877
 II,JST,KST,LST = 51  1  1  1 NREC =      8642 INTLOC =14511
 II,JST,KST,LST = 52  1  1  1 NREC =      9093 INTLOC =12501
 II,JST,KST,LST = 53  1  1  1 NREC =     10370 INTLOC = 2985
 II,JST,KST,LST = 54  1  1  1 NREC =     11523 INTLOC = 5343
 TOTAL NUMBER OF NONZERO TWO-ELECTRON INTEGRALS =           208769663
      13918 INTEGRAL RECORDS WERE STORED ON DISK FILE  8.
  ...... END OF TWO-ELECTRON INTEGRALS .....
 STEP CPU TIME =     7.85 TOTAL CPU TIME =        8.1 (    0.1 MIN)
 TOTAL WALL CLOCK TIME=       11.1 SECONDS, CPU UTILIZATION IS  73.09%

          --------------------------
               R-PBE SCF CALCULATION
          --------------------------

     NUCLEAR ENERGY =         7.0352112604
     MAXIT =  200     NPUNCH=    2
     EXTRAP=T  DAMP=T  SHIFT=T  RSTRCT=T  DIIS=T  DEM=F  SOSCF=F
         DENSITY MATRIX CONVERGENCE THRESHOLD=  1.00E-05
     COARSE -> FINE DFT GRID SWITCH THRESHOLD=  3.00E-04 (SWITCH IN $DFT)
                   HF -> DFT SWITCH THRESHOLD=  5.00E-03 (SWOFF IN $DFT)
     MEMORY REQUIRED FOR RHF ITERS=    577821 WORDS.

 DFT CODE IS SWITCHING FROM THE FINE GRID NRAD= 96,  NLEB=  302
                      TO THE COARSE GRID NRAD0= 24, NLEB0=  110

     EXCHANGE FUNCTIONAL   =PBE       
     CORRELATION FUNCTIONAL=PBE       
     DFT THRESHOLD         =.276E-07
     GRID CHANGE THRESHOLD =.300E-03
 FOR AN EULER-MACLAURIN QUADRATURE USING  96 RADIAL POINTS:
 SMALLEST GAUSSIAN PRIMITIVE EXPONENT=        0.0321220000 OF TYPE -P-
 ON ATOM NUMBER   1 HAS RADIAL NORMALIZATION=  1.000000
  LARGEST GAUSSIAN PRIMITIVE EXPONENT=       23.8431850000 OF TYPE -S-
 ON ATOM NUMBER   2 HAS RADIAL NORMALIZATION=  1.000000
 DFT IS SWITCHED OFF, PERFORMING PURE SCF UNTIL SWOFF THRESHOLD IS REACHED.

 ITER EX DEM     TOTAL ENERGY        E CHANGE  DENSITY CHANGE    DIIS ERROR      VIR. SHIFT       DAMPING
          * * *   INITIATING DIIS PROCEDURE   * * *
   1  0  0       -5.9396919525    -5.9396919525   1.081255071   0.447544107     0.000000000     1.000000000
   2  1  0       -6.0789652449    -0.1392732924   0.117063744   0.039467686     0.000000000     1.000000000
   3  2  0       -6.0860065057    -0.0070412608   0.025834321   0.012726532     0.000000000     1.000000000
   4  3  0       -6.0867287200    -0.0007222143   0.009063115   0.002810877     0.000000000     1.000000000
   5  4  0       -6.0867614081    -0.0000326881   0.002089762   0.000236774     0.000000000     1.000000000
 CONVERGED TO SWOFF, SO DFT CALCULATION IS NOW SWITCHED ON.
          * * *   INITIATING DIIS PROCEDURE   * * *
   6  5  0       -6.2469155023    -0.1601540942   0.589177418   0.047132050
   7  6  0       -6.2557449713    -0.0088294691   0.062909841   0.016390257
   8  7  0       -6.2560957247    -0.0003507533   0.037448116   0.012341802
   9  8  0       -6.2564231914    -0.0003274667   0.002037704   0.000843738
  10  9  0       -6.2564256833    -0.0000024920   0.000225615   0.000055261
 DFT CODE IS SWITCHING BACK TO THE FINE GRID
          * * *   INITIATING DIIS PROCEDURE   * * *
  11 10  0       -6.2565870130    -0.0001613296   0.122195709   0.019301659
  12 11  0       -6.2569385689    -0.0003515559   0.010579895   0.002198081
  13 12  0       -6.2569410576    -0.0000024888   0.005084465   0.001984234
  14 13  0       -6.2569496116    -0.0000085540   0.000066116   0.000032537
  15 14  0       -6.2569496152    -0.0000000036   0.000017317   0.000004962
  16 15  0       -6.2569496153    -0.0000000002   0.000000777   0.000000057
  17 16  0       -6.2569496153     0.0000000000   0.000000035   0.000000002

          -----------------
          DENSITY CONVERGED
          -----------------
     TIME TO FORM FOCK OPERATORS=      48.1 SECONDS (       2.8 SEC/ITER)
     TIME TO SOLVE SCF EQUATIONS=       1.5 SECONDS (       0.1 SEC/ITER)

 FINAL R-PBE ENERGY IS       -6.2569496153 AFTER  17 ITERATIONS
 DFT EXCHANGE + CORRELATION ENERGY =        -2.5783911417
 TOTAL ELECTRON NUMBER             =         8.0000006864

          ------------
          EIGENVECTORS
          ------------

                      1          2          3          4          5
                   -0.4994    -0.3132    -0.3132    -0.3132     0.0063
                     A          A          A          A          A   
    1  SI 1  S    0.960599  -0.000008   0.000009   0.000008   0.000120
    2  SI 1  S    0.097887  -0.000103   0.000113   0.000110   0.000271
    3  SI 1  S   -0.159855   0.000173  -0.000176  -0.000156  -0.000066
    4  SI 1  S   -0.220268   0.000217  -0.000267  -0.000288  -0.000251
    5  SI 1  X    0.000000   0.166265  -0.011463   0.168046   3.971063
    6  SI 1  Y    0.000042  -0.154283  -0.105141   0.145474  -0.191827
    7  SI 1  Z    0.000084  -0.067616   0.211749   0.081343  -0.078484
    8  SI 1  X    0.000000  -0.025040   0.001738  -0.025300   0.217543
    9  SI 1  Y    0.000004   0.023231   0.015832  -0.021904  -0.010509
   10  SI 1  Z    0.000008   0.010171  -0.031881  -0.012256  -0.004306
   11  SI 1  X   -0.000000   0.068070  -0.004728   0.068774  -0.898748
   12  SI 1  Y   -0.000013  -0.063148  -0.043037   0.059542   0.043417
   13  SI 1  Z   -0.000026  -0.027643   0.086661   0.033318   0.017762
   14  SI 1  X   -0.000000   0.119701  -0.008272   0.120975  -1.233245
   15  SI 1  Y    0.000021  -0.111064  -0.075693   0.104728   0.059567
   16  SI 1  Z    0.000042  -0.048657   0.152431   0.058573   0.024292
   17  SI 1 XX   -0.013899  -0.000001   0.000001   0.000001   0.000007
   18  SI 1 YY   -0.013899  -0.000001   0.000001   0.000001   0.000007
   19  SI 1 ZZ   -0.013899  -0.000001   0.000001   0.000001   0.000007
   20  SI 1 XY    0.000002  -0.009551   0.029925   0.011500   0.001278
   21  SI 1 XZ    0.000001  -0.021805  -0.014860   0.020560   0.003130
   22  SI 1 YZ   -0.000000   0.023501  -0.001626   0.023749  -0.064767
   23  SI 1 XX    0.001756  -0.000026   0.000029   0.000028   0.000135
   24  SI 1 YY    0.001756  -0.000026   0.000029   0.000028   0.000135
   25  SI 1 ZZ    0.001756  -0.000026   0.000029   0.000028   0.000135
   26  SI 1 XY    0.000010  -0.002528   0.007919   0.003043   0.000426
   27  SI 1 XZ    0.000005  -0.005770  -0.003933   0.005442   0.001120
   28  SI 1 YZ   -0.000000   0.006219  -0.000429   0.006287  -0.023293
   29  SI 1 XX    0.017378  -0.000037   0.000047   0.000052   0.000280
   30  SI 1 YY    0.017378  -0.000037   0.000047   0.000052   0.000280
   31  SI 1 ZZ    0.017378  -0.000037   0.000046   0.000052   0.000280
   32  SI 1 XY    0.000056  -0.005404   0.016861   0.006459   0.000816
   33  SI 1 XZ    0.000028  -0.012282  -0.008369   0.011581   0.002200
   34  SI 1 YZ   -0.000000   0.013225  -0.000888   0.013385  -0.045317
   35  SI 1 XXX  -0.000000  -0.010475   0.000727  -0.010582  -0.038276
   36  SI 1 YYY   0.000003   0.009718   0.006623  -0.009162   0.001848
   37  SI 1 ZZZ   0.000007   0.004255  -0.013337  -0.005127   0.000737
   38  SI 1 XXY   0.000004   0.000434   0.000296  -0.000409   0.000871
   39  SI 1 XXZ   0.000008   0.000188  -0.000595  -0.000230   0.000340
   40  SI 1 YYX  -0.000000  -0.000469   0.000035  -0.000471  -0.018035
   41  SI 1 YYZ   0.000008   0.000188  -0.000595  -0.000230   0.000340
   42  SI 1 ZZX  -0.000000  -0.000469   0.000035  -0.000471  -0.018035
   43  SI 1 ZZY   0.000004   0.000434   0.000296  -0.000409   0.000870
   44  SI 1 XYZ   0.015941   0.000004  -0.000004  -0.000004   0.000006
   45  SI 1 XXX  -0.000000  -0.011892   0.000816  -0.012021  -0.416279
   46  SI 1 YYY  -0.000005   0.011038   0.007521  -0.010406   0.020104
   47  SI 1 ZZZ  -0.000009   0.004841  -0.015149  -0.005816   0.008199
   48  SI 1 XXY   0.000010   0.003299   0.002249  -0.003111   0.007676
   49  SI 1 XXZ   0.000020   0.001438  -0.004527  -0.001746   0.003101
   50  SI 1 YYX  -0.000000  -0.003559   0.000256  -0.003590  -0.158662
   51  SI 1 YYZ   0.000020   0.001438  -0.004527  -0.001746   0.003100
   52  SI 1 ZZX  -0.000000  -0.003560   0.000254  -0.003590  -0.158662
   53  SI 1 ZZY   0.000010   0.003300   0.002249  -0.003110   0.007664
   54  SI 1 XYZ   0.012352   0.000022  -0.000024  -0.000022   0.000011
   55  SI 1XXXX   0.005121  -0.000006   0.000007   0.000006   0.000005
   56  SI 1YYYY   0.005121  -0.000006   0.000007   0.000006   0.000005
   57  SI 1ZZZZ   0.005121  -0.000006   0.000006   0.000007   0.000005
   58  SI 1XXXY   0.000010  -0.004336   0.013574   0.005213   0.000577
   59  SI 1XXXZ   0.000005  -0.009890  -0.006740   0.009325   0.001434
   60  SI 1YYYX   0.000010  -0.004336   0.013574   0.005213   0.000577
   61  SI 1YYYZ  -0.000000   0.010657  -0.000733   0.010773  -0.029554
   62  SI 1ZZZX   0.000005  -0.009890  -0.006740   0.009325   0.001429
   63  SI 1ZZZY  -0.000000   0.010657  -0.000733   0.010773  -0.029554
   64  SI 1XXYY   0.009477   0.000001  -0.000000  -0.000001   0.000006
   65  SI 1XXZZ   0.009477   0.000001  -0.000001  -0.000000   0.000006
   66  SI 1YYZZ   0.009477   0.000001  -0.000001  -0.000000   0.000006
   67  SI 1XXYZ  -0.000000   0.007129  -0.000488   0.007209   0.000831
   68  SI 1YYXZ   0.000006  -0.006617  -0.004509   0.006240  -0.000041
   69  SI 1ZZXY   0.000012  -0.002903   0.009082   0.003486  -0.000028
   70  H  2  S    0.332067  -0.104296   0.178471   0.741241  -0.223621
   71  H  2  S   -0.075041   0.009531  -0.016306  -0.067727  -0.707264
   72  H  2  S   -0.091894   0.015910  -0.027220  -0.113016  -0.012764
   73  H  2  S   -0.023602   0.004000  -0.006846  -0.028439  -0.006896
   74  H  2  X   -0.001632   0.007881  -0.003390  -0.006103   0.044594
   75  H  2  Y   -0.001630  -0.003970  -0.006854  -0.006937  -0.003878
   76  H  2  Z   -0.001628  -0.000766   0.004862  -0.009309  -0.002559
   77  H  2  X   -0.002300   0.003211  -0.002207  -0.006574   0.018480
   78  H  2  Y   -0.002302  -0.000655  -0.003334  -0.006845   0.004965
   79  H  2  Z   -0.002304   0.000392   0.000487  -0.007617   0.005336
   80  H  2  X   -0.000919   0.000566  -0.000210  -0.000272  -0.001515
   81  H  2  Y   -0.000919  -0.000323  -0.000470  -0.000335  -0.002809
   82  H  2  Z   -0.000919  -0.000083   0.000408  -0.000513  -0.002775
   83  H  2 XX    0.000778  -0.001489   0.000895   0.002408  -0.007718
   84  H  2 YY    0.000778   0.000452   0.001461   0.002545  -0.005581
   85  H  2 ZZ    0.000779  -0.000073  -0.000457   0.002933  -0.005640
   86  H  2 XY   -0.000573  -0.000567   0.001503   0.001816  -0.004024
   87  H  2 XZ   -0.000573  -0.001048  -0.000255   0.002171  -0.004026
   88  H  2 YZ   -0.000573   0.000731   0.000265   0.002297  -0.003972
   89  H  2 XX    0.000377  -0.000099   0.000050   0.000115  -0.000593
   90  H  2 YY    0.000377   0.000041   0.000091   0.000125  -0.000522
   91  H  2 ZZ    0.000377   0.000003  -0.000047   0.000153  -0.000524
   92  H  2 XY    0.000153  -0.000062   0.000119   0.000380   0.000290
   93  H  2 XZ    0.000153  -0.000074   0.000074   0.000389   0.000291
   94  H  2 YZ    0.000153  -0.000028   0.000087   0.000393   0.000265
   95  H  2 XXX   0.000141  -0.000140   0.000168   0.000646  -0.003777
   96  H  2 YYY   0.000142  -0.000054   0.000193   0.000652  -0.001934
   97  H  2 ZZZ   0.000142  -0.000078   0.000108   0.000668  -0.001985
   98  H  2 XXY   0.000116   0.000022  -0.000073   0.000071  -0.001025
   99  H  2 XXZ   0.000117   0.000062   0.000072   0.000041  -0.001048
  100  H  2 YYX   0.000116   0.000013  -0.000076   0.000070  -0.002030
  101  H  2 YYZ   0.000117  -0.000095   0.000026   0.000030  -0.001239
  102  H  2 ZZX   0.000116   0.000055   0.000079   0.000039  -0.002024
  103  H  2 ZZY   0.000116  -0.000092   0.000036   0.000028  -0.001211
  104  H  2 XYZ   0.000124   0.000079  -0.000134  -0.000558  -0.000450
  105  H  3  S    0.332068  -0.149377   0.616433  -0.435735   0.232954
  106  H  3  S   -0.075020   0.013640  -0.056315   0.039870   0.736745
  107  H  3  S   -0.091826   0.022759  -0.093955   0.066528   0.013605
  108  H  3  S   -0.023601   0.005729  -0.023650   0.016725   0.007190
  109  H  3  X    0.001646   0.003659   0.009825  -0.001004   0.044568
  110  H  3  Y    0.001648  -0.008191   0.006361  -0.001839  -0.003904
  111  H  3  Z   -0.001642  -0.000012  -0.002420   0.010221   0.000766
  112  H  3  X    0.002312   0.000274   0.007015  -0.003024   0.018751
  113  H  3  Y    0.002310  -0.003592   0.005887  -0.003296   0.005236
  114  H  3  Z   -0.002313   0.000918  -0.004602   0.006034  -0.006119
  115  H  3  X    0.000917   0.000312   0.000582   0.000031  -0.001639
  116  H  3  Y    0.000917  -0.000577   0.000322  -0.000032  -0.002933
  117  H  3  Z   -0.000916  -0.000038  -0.000026   0.000660   0.002850
  118  H  3 XX    0.000780   0.000316   0.002779  -0.000994   0.007945
  119  H  3 YY    0.000779  -0.001625   0.002213  -0.001131   0.005808
  120  H  3 ZZ    0.000780  -0.000282   0.001568  -0.002503   0.005944
  121  H  3 XY   -0.000570  -0.000650   0.002310  -0.000348   0.004201
  122  H  3 XZ    0.000570  -0.000580  -0.001719   0.001606  -0.004202
  123  H  3 YZ    0.000570   0.001198  -0.001200   0.001731  -0.004148
  124  H  3 XX    0.000377   0.000035   0.000151  -0.000038   0.000612
  125  H  3 YY    0.000377  -0.000105   0.000111  -0.000047   0.000541
  126  H  3 ZZ    0.000377  -0.000008   0.000064  -0.000146   0.000546
  127  H  3 XY    0.000153  -0.000084   0.000337  -0.000205  -0.000302
  128  H  3 XZ   -0.000153   0.000052  -0.000321   0.000238   0.000303
  129  H  3 YZ   -0.000153   0.000098  -0.000308   0.000241   0.000278
  130  H  3 XXX  -0.000145   0.000094  -0.000572   0.000360  -0.003876
  131  H  3 YYY  -0.000144   0.000180  -0.000547   0.000366  -0.002033
  132  H  3 ZZZ   0.000145  -0.000121   0.000519  -0.000427   0.002155
  133  H  3 XXY  -0.000118  -0.000006   0.000010   0.000102  -0.001084
  134  H  3 XXZ   0.000118  -0.000096   0.000038   0.000001   0.001137
  135  H  3 YYX  -0.000118  -0.000015   0.000008   0.000102  -0.002088
  136  H  3 YYZ   0.000118   0.000060   0.000084   0.000012   0.001328
  137  H  3 ZZX  -0.000118   0.000093  -0.000044  -0.000009  -0.002076
  138  H  3 ZZY  -0.000117  -0.000054  -0.000087  -0.000019  -0.001262
  139  H  3 XYZ   0.000124   0.000113  -0.000464   0.000328   0.000468
  140  H  4  S    0.332069  -0.474906  -0.573207  -0.195105   0.246657
  141  H  4  S   -0.075000   0.043377   0.052438   0.017856   0.780040
  142  H  4  S   -0.091756   0.072355   0.087501   0.029782   0.014146
  143  H  4  S   -0.023600   0.018219   0.021999   0.007489   0.007629
  144  H  4  X    0.001660  -0.001755  -0.009919   0.002982   0.044421
  145  H  4  Y   -0.001658   0.002198   0.005610   0.008606  -0.000394
  146  H  4  Z    0.001664  -0.010402  -0.001669  -0.000223  -0.002743
  147  H  4  X    0.002322  -0.003510  -0.006787  -0.000238   0.019080
  148  H  4  Y   -0.002323   0.003655   0.005378   0.004020  -0.006813
  149  H  4  Z    0.002320  -0.006329  -0.004092  -0.001282   0.005930
  150  H  4  X    0.000914  -0.000011  -0.000603   0.000272  -0.001804
  151  H  4  Y   -0.000914   0.000044   0.000280   0.000597   0.002980
  152  H  4  Z    0.000915  -0.000659   0.000015   0.000031  -0.003062
  153  H  4 XX    0.000781  -0.001189  -0.002716   0.000116   0.008294
  154  H  4 YY    0.000781  -0.001262  -0.002010  -0.001781   0.006348
  155  H  4 ZZ    0.000781  -0.002604  -0.001365  -0.000408   0.006212
  156  H  4 XY    0.000568   0.000501   0.002227   0.000809  -0.004439
  157  H  4 XZ   -0.000567  -0.001732  -0.001635   0.000449   0.004438
  158  H  4 YZ    0.000567   0.001798   0.000989   0.001290  -0.004384
  159  H  4 XX    0.000377  -0.000048  -0.000151   0.000024   0.000643
  160  H  4 YY    0.000377  -0.000053  -0.000100  -0.000113   0.000580
  161  H  4 ZZ    0.000377  -0.000150  -0.000053  -0.000014   0.000575
  162  H  4 XY   -0.000153   0.000226   0.000316   0.000109   0.000320
  163  H  4 XZ    0.000153  -0.000258  -0.000300  -0.000076  -0.000318
  164  H  4 YZ   -0.000153   0.000260   0.000283   0.000121   0.000294
  165  H  4 XXX  -0.000148   0.000400   0.000537   0.000138  -0.003995
  166  H  4 YYY   0.000149  -0.000403  -0.000505  -0.000222   0.002322
  167  H  4 ZZZ  -0.000148   0.000462   0.000476   0.000160  -0.002201
  168  H  4 XXY   0.000120  -0.000103   0.000018   0.000005   0.001233
  169  H  4 XXZ  -0.000119   0.000001   0.000031   0.000099  -0.001179
  170  H  4 YYX  -0.000119   0.000102  -0.000014  -0.000014  -0.002145
  171  H  4 YYZ  -0.000119  -0.000005   0.000088  -0.000054  -0.001353
  172  H  4 ZZX  -0.000119  -0.000006   0.000038   0.000097  -0.002157
  173  H  4 ZZY   0.000120   0.000011  -0.000091   0.000047   0.001419
  174  H  4 XYZ   0.000124   0.000357   0.000431   0.000147   0.000496
  175  H  5  S    0.332070   0.728582  -0.221698  -0.110401  -0.256219
  176  H  5  S   -0.074979  -0.066629   0.020283   0.010108  -0.810568
  177  H  5  S   -0.091686  -0.111175   0.033829   0.016846  -0.014916
  178  H  5  S   -0.023598  -0.027961   0.008509   0.004238  -0.007910
  179  H  5  X   -0.001674  -0.005935   0.003249   0.008038   0.044430
  180  H  5  Y    0.001676   0.006378  -0.007558   0.003550  -0.000403
  181  H  5  Z    0.001678   0.009581   0.004153   0.001179   0.000916
  182  H  5  X   -0.002333  -0.006446   0.002436   0.003312   0.019309
  183  H  5  Y    0.002332   0.006591  -0.003845   0.000470  -0.007042
  184  H  5  Z    0.002330   0.007639  -0.000021  -0.000302  -0.006671
  185  H  5  X   -0.000912  -0.000265   0.000188   0.000575  -0.001920
  186  H  5  Y    0.000912   0.000298  -0.000511   0.000294   0.003095
  187  H  5  Z    0.000912   0.000538   0.000367   0.000116   0.003130
  188  H  5 XX    0.000783   0.002358  -0.000954  -0.001526  -0.008546
  189  H  5 YY    0.000782   0.002431  -0.001660   0.000371  -0.006600
  190  H  5 ZZ    0.000782   0.002956   0.000257  -0.000017  -0.006541
  191  H  5 XY    0.000565  -0.001714   0.001582   0.000654   0.004623
  192  H  5 XZ    0.000565  -0.002195  -0.000176   0.001010   0.004621
  193  H  5 YZ   -0.000565   0.002261  -0.000471   0.000729  -0.004568
  194  H  5 XX    0.000377   0.000113  -0.000051  -0.000102  -0.000666
  195  H  5 YY    0.000377   0.000118  -0.000102   0.000035  -0.000603
  196  H  5 ZZ    0.000377   0.000156   0.000036   0.000007  -0.000601
  197  H  5 XY   -0.000153  -0.000372   0.000141   0.000067  -0.000333
  198  H  5 XZ   -0.000153  -0.000385   0.000095   0.000076  -0.000332
  199  H  5 YZ    0.000153   0.000386  -0.000112  -0.000030   0.000308
  200  H  5 XXX   0.000153   0.000634  -0.000205  -0.000150  -0.004077
  201  H  5 YYY  -0.000152  -0.000638   0.000237   0.000066   0.002404
  202  H  5 ZZZ  -0.000152  -0.000662   0.000151   0.000082   0.002353
  203  H  5 XXY  -0.000121  -0.000076  -0.000065  -0.000026   0.001283
  204  H  5 XXZ  -0.000121  -0.000036   0.000080  -0.000056   0.001261
  205  H  5 YYX   0.000121   0.000075   0.000069   0.000017  -0.002196
  206  H  5 YYZ  -0.000121  -0.000030   0.000023   0.000097   0.001434
  207  H  5 ZZX   0.000121   0.000033  -0.000086   0.000048  -0.002201
  208  H  5 ZZY  -0.000121  -0.000027   0.000033   0.000096   0.001462
  209  H  5 XYZ   0.000124  -0.000548   0.000167   0.000083  -0.000514

                      6          7          8          9         10
                    0.0063     0.0063     0.2467    22.9677     1.4312
                     A          A          A          A          A   
    1  SI 1  S    0.000159   0.000117  -1.465321 140.011344  -1.293416
    2  SI 1  S    0.000728   0.000524   1.448010  54.641598 -28.416809
    3  SI 1  S   -0.002275  -0.001603 -13.736313 -74.020510  85.105530
    4  SI 1  S    0.000968   0.000670  28.438646 -57.682560 -15.474632
    5  SI 1  X    0.049216   0.201342  -0.000611  -0.000004   0.000170
    6  SI 1  Y   -0.590137   3.928126  -0.000992  -0.000009   0.000899
    7  SI 1  Z    3.932602   0.586904  -0.001985  -0.000018   0.001798
    8  SI 1  X    0.002702   0.011031  -0.000030  -0.000001   0.000016
    9  SI 1  Y   -0.032330   0.215192  -0.000039  -0.000002   0.000160
   10  SI 1  Z    0.215436   0.032150  -0.000077  -0.000004   0.000320
   11  SI 1  X   -0.011136  -0.045567   0.000180   0.000002  -0.000027
   12  SI 1  Y    0.133566  -0.889054   0.000321   0.000000   0.000683
   13  SI 1  Z   -0.890077  -0.132834   0.000643   0.000001   0.001365
   14  SI 1  X   -0.015205  -0.062517   0.000437  -0.000009   0.000032
   15  SI 1  Y    0.183248  -1.219790   0.000832  -0.000010  -0.002457
   16  SI 1  Z   -1.221152  -0.182277   0.001664  -0.000020  -0.004914
   17  SI 1 XX    0.000004   0.000004   0.034097  -9.459710  -0.047746
   18  SI 1 YY    0.000004   0.000004   0.034095  -9.459709  -0.047749
   19  SI 1 ZZ    0.000005   0.000003   0.034094  -9.459709  -0.047753
   20  SI 1 XY   -0.064126  -0.009572  -0.000006   0.000002  -0.000090
   21  SI 1 XZ    0.009623  -0.064057  -0.000003   0.000001  -0.000045
   22  SI 1 YZ   -0.000800  -0.003282  -0.000001   0.000000   0.000007
   23  SI 1 XX    0.000163   0.000120   0.819292 -35.868865  -8.259815
   24  SI 1 YY    0.000163   0.000120   0.819295 -35.868866  -8.259801
   25  SI 1 ZZ    0.000162   0.000120   0.819299 -35.868867  -8.259787
   26  SI 1 XY   -0.023063  -0.003449   0.000205  -0.000038   0.001439
   27  SI 1 XZ    0.003459  -0.023032   0.000102  -0.000019   0.000720
   28  SI 1 YZ   -0.000259  -0.001181   0.000028  -0.000006   0.000030
   29  SI 1 XX   -0.000177  -0.000108  -4.099863   1.764403   5.818282
   30  SI 1 YY   -0.000177  -0.000109  -4.099861   1.764403   5.818282
   31  SI 1 ZZ   -0.000168  -0.000115  -4.099861   1.764403   5.818283
   32  SI 1 XY   -0.044744  -0.006713   0.000838  -0.000018   0.002315
   33  SI 1 XZ    0.006706  -0.044708   0.000419  -0.000009   0.001158
   34  SI 1 YZ   -0.000469  -0.002267   0.000153  -0.000004   0.000120
   35  SI 1 XXX  -0.000455  -0.001939   0.000050  -0.000002   0.000020
   36  SI 1 YYY   0.005688  -0.037870   0.000124  -0.000005   0.000564
   37  SI 1 ZZZ  -0.037922  -0.005665   0.000247  -0.000011   0.001129
   38  SI 1 XXY   0.002680  -0.017841   0.000081  -0.000006   0.000377
   39  SI 1 XXZ  -0.017867  -0.002671   0.000167  -0.000013   0.000727
   40  SI 1 YYX  -0.000209  -0.000912   0.000033  -0.000003   0.000017
   41  SI 1 YYZ  -0.017867  -0.002671   0.000167  -0.000013   0.000727
   42  SI 1 ZZX  -0.000207  -0.000914   0.000033  -0.000003   0.000016
   43  SI 1 ZZY   0.002679  -0.017841   0.000086  -0.000007   0.000350
   44  SI 1 XYZ  -0.000026  -0.000018   0.066234   0.308576   0.376901
   45  SI 1 XXX  -0.005135  -0.021109   0.000145   0.000002   0.000009
   46  SI 1 YYY   0.061867  -0.411811   0.000313  -0.000002   0.001129
   47  SI 1 ZZZ  -0.412300  -0.061537   0.000625  -0.000004   0.002257
   48  SI 1 XXY   0.023573  -0.156927   0.000283  -0.000004   0.000846
   49  SI 1 XXZ  -0.157113  -0.023462   0.000607  -0.000009   0.001792
   50  SI 1 YYX  -0.001932  -0.008027   0.000133  -0.000002   0.000053
   51  SI 1 YYZ  -0.157113  -0.023462   0.000607  -0.000009   0.001792
   52  SI 1 ZZX  -0.001919  -0.008036   0.000136  -0.000002   0.000053
   53  SI 1 ZZY   0.023572  -0.156928   0.000325  -0.000006   0.000946
   54  SI 1 XYZ  -0.000134  -0.000094   0.139359   0.123553   5.533501
   55  SI 1XXXX   0.000033   0.000024  -0.105295  14.765535  -0.394548
   56  SI 1YYYY   0.000033   0.000024  -0.105298  14.765535  -0.394557
   57  SI 1ZZZZ   0.000035   0.000023  -0.105301  14.765536  -0.394567
   58  SI 1XXXY  -0.029251  -0.004370   0.000111   0.000002  -0.000284
   59  SI 1XXXZ   0.004389  -0.029220   0.000048   0.000002  -0.000216
   60  SI 1YYYX  -0.029251  -0.004370   0.000111   0.000002  -0.000284
   61  SI 1YYYZ  -0.000358  -0.001490   0.000026  -0.000000   0.000016
   62  SI 1ZZZX   0.004389  -0.029221   0.000063   0.000000  -0.000068
   63  SI 1ZZZY  -0.000353  -0.001494   0.000027  -0.000000   0.000017
   64  SI 1XXYY   0.000006   0.000007  -0.020011   8.642820   0.020211
   65  SI 1XXZZ   0.000009   0.000005  -0.020012   8.642820   0.020209
   66  SI 1YYZZ   0.000009   0.000005  -0.020013   8.642820   0.020206
   67  SI 1XXYZ   0.000021   0.000043   0.000027  -0.000002   0.000013
   68  SI 1YYXZ  -0.000126   0.000834   0.000053  -0.000001  -0.000236
   69  SI 1ZZXY   0.000836   0.000120   0.000107  -0.000002  -0.000473
   70  H  2  S   -0.204896  -0.284915   0.045220 -11.481726   1.040568
   71  H  2  S   -0.648163  -0.901189  -3.485459   1.766367   0.814394
   72  H  2  S   -0.011595  -0.016234   0.824851   6.984833 -17.333761
   73  H  2  S   -0.006330  -0.008797  -0.044191   6.467873   1.218205
   74  H  2  X   -0.000961   0.000231   0.135516   0.215997   3.659706
   75  H  2  Y   -0.008407   0.043626   0.135529   0.215998   3.659957
   76  H  2  Z    0.044257   0.004718   0.135561   0.215998   3.660218
   77  H  2  X    0.005298   0.007794  -0.096123   0.362281  -0.458073
   78  H  2  Y    0.003226   0.019892  -0.096137   0.362281  -0.458568
   79  H  2  Z    0.017906   0.009048  -0.096169   0.362282  -0.459078
   80  H  2  X   -0.002508  -0.003445   0.027698  -0.097660   0.103321
   81  H  2  Y   -0.002707  -0.002287   0.027702  -0.097660   0.103442
   82  H  2  Z   -0.001301  -0.003326   0.027711  -0.097660   0.103566
   83  H  2 XX   -0.005232  -0.007340  -0.086403  -1.230044   0.392581
   84  H  2 YY   -0.004905  -0.009252  -0.086403  -1.230044   0.392568
   85  H  2 ZZ   -0.007225  -0.007538  -0.086403  -1.230044   0.392556
   86  H  2 XY   -0.003634  -0.005118  -0.014218  -0.136355  -0.160822
   87  H  2 XZ   -0.003693  -0.005074  -0.014219  -0.136356  -0.160805
   88  H  2 YZ   -0.003685  -0.005123  -0.014219  -0.136356  -0.160787
   89  H  2 XX   -0.000482  -0.000672  -0.010973  -0.727863   0.031403
   90  H  2 YY   -0.000471  -0.000736  -0.010974  -0.727863   0.031404
   91  H  2 ZZ   -0.000548  -0.000679  -0.010974  -0.727863   0.031405
   92  H  2 XY    0.000240   0.000365   0.000292   0.036965   0.016147
   93  H  2 XZ    0.000269   0.000344   0.000292   0.036965   0.016144
   94  H  2 YZ    0.000265   0.000367   0.000292   0.036965   0.016142
   95  H  2 XXX  -0.001877  -0.002668   0.045828  -0.152472   0.147639
   96  H  2 YYY  -0.001595  -0.004319   0.045835  -0.152472   0.147842
   97  H  2 ZZZ  -0.003598  -0.002840   0.045848  -0.152473   0.148051
   98  H  2 XXY  -0.001026  -0.002348   0.021427  -0.055313   0.077777
   99  H  2 XXZ  -0.001910  -0.001695   0.021433  -0.055313   0.077868
  100  H  2 YYX  -0.001180  -0.001449   0.021424  -0.055313   0.077693
  101  H  2 YYZ  -0.001940  -0.001525   0.021433  -0.055313   0.077871
  102  H  2 ZZX  -0.000973  -0.001602   0.021424  -0.055313   0.077696
  103  H  2 ZZY  -0.000849  -0.002330   0.021426  -0.055313   0.077784
  104  H  2 XYZ  -0.000413  -0.000574   0.002036   0.008602   0.018239
  105  H  3  S   -0.270248   0.213922   0.045229 -11.481810   1.040360
  106  H  3  S   -0.854839   0.676655  -3.486360   1.766380   0.815319
  107  H  3  S   -0.015161   0.012824   0.827092   6.984835 -17.330926
  108  H  3  S   -0.008361   0.006587  -0.044273   6.467920   1.218045
  109  H  3  X    0.002633   0.000888  -0.135118  -0.216011  -3.659284
  110  H  3  Y   -0.004814   0.044284  -0.135102  -0.216010  -3.659034
  111  H  3  Z    0.043743   0.008302   0.135254   0.216008   3.659655
  112  H  3  X   -0.006603   0.006029   0.096241  -0.362317   0.458580
  113  H  3  Y   -0.008675   0.018126   0.096223  -0.362317   0.458085
  114  H  3  Z    0.019532  -0.003476  -0.096316   0.362314  -0.458421
  115  H  3  X    0.003340  -0.002575  -0.027727   0.097669  -0.103462
  116  H  3  Y    0.003140  -0.001416  -0.027722   0.097669  -0.103341
  117  H  3  Z   -0.002103   0.002822   0.027748  -0.097669   0.103415
  118  H  3 XX   -0.006840   0.005527  -0.086429  -1.230056   0.392598
  119  H  3 YY   -0.007167   0.007439  -0.086429  -1.230056   0.392610
  120  H  3 ZZ   -0.008886   0.005119  -0.086444  -1.230055   0.392412
  121  H  3 XY   -0.004801   0.003875  -0.014153  -0.136362  -0.160677
  122  H  3 XZ    0.004847  -0.003814   0.014165   0.136362   0.160737
  123  H  3 YZ    0.004855  -0.003863   0.014165   0.136362   0.160755
  124  H  3 XX   -0.000633   0.000503  -0.010979  -0.727869   0.031383
  125  H  3 YY   -0.000644   0.000567  -0.010979  -0.727869   0.031382
  126  H  3 ZZ   -0.000701   0.000490  -0.010978  -0.727869   0.031405
  127  H  3 XY    0.000324  -0.000283   0.000286   0.036966   0.016128
  128  H  3 XZ   -0.000345   0.000254  -0.000287  -0.036966  -0.016135
  129  H  3 YZ   -0.000349   0.000277  -0.000287  -0.036966  -0.016138
  130  H  3 XXX   0.002420  -0.002032  -0.045874   0.152487  -0.147888
  131  H  3 YYY   0.002702  -0.003682  -0.045866   0.152487  -0.147685
  132  H  3 ZZZ  -0.004185   0.001685   0.045905  -0.152486   0.147820
  133  H  3 XXY   0.001623  -0.001954  -0.021437   0.055319  -0.077698
  134  H  3 XXZ  -0.002278   0.001072   0.021455  -0.055318   0.077754
  135  H  3 YYX   0.001470  -0.001055  -0.021441   0.055318  -0.077782
  136  H  3 YYZ  -0.002249   0.000901   0.021455  -0.055318   0.077751
  137  H  3 ZZX   0.001316  -0.001262  -0.021442   0.055319  -0.077803
  138  H  3 ZZY   0.001440  -0.001990  -0.021438   0.055319  -0.077715
  139  H  3 XYZ  -0.000545   0.000429   0.002030   0.008603   0.018222
  140  H  4  S    0.276056  -0.189671   0.045235 -11.481876   1.040153
  141  H  4  S    0.873275  -0.600016  -3.486922   1.766391   0.816142
  142  H  4  S    0.016656  -0.010748   0.828681   6.984838 -17.328391
  143  H  4  S    0.008502  -0.005869  -0.044340   6.467959   1.217884
  144  H  4  X   -0.001291   0.003776  -0.134899  -0.216018  -3.658787
  145  H  4  Y   -0.005009   0.044333   0.134950   0.216018   3.659060
  146  H  4  Z    0.043937   0.008253  -0.134800  -0.216020  -3.658437
  147  H  4  X    0.007099  -0.004103   0.096336  -0.362336   0.457890
  148  H  4  Y   -0.008857   0.017505  -0.096384   0.362338  -0.458418
  149  H  4  Z    0.019699  -0.002844   0.096287  -0.362341   0.458066
  150  H  4  X   -0.003389   0.002398  -0.027751   0.097674  -0.103302
  151  H  4  Y    0.003222  -0.001114   0.027764  -0.097675   0.103431
  152  H  4  Z   -0.002181   0.002517  -0.027738   0.097676  -0.103354
  153  H  4 XX    0.007019  -0.004712  -0.086460  -1.230064   0.392454
  154  H  4 YY    0.007298  -0.006837  -0.086460  -1.230064   0.392441
  155  H  4 ZZ    0.009015  -0.004516  -0.086447  -1.230066   0.392639
  156  H  4 XY   -0.004941   0.003419   0.014126   0.136366   0.160693
  157  H  4 XZ    0.004985  -0.003358  -0.014114  -0.136367  -0.160633
  158  H  4 YZ   -0.004993   0.003416   0.014116   0.136367   0.160616
  159  H  4 XX    0.000645  -0.000441  -0.010981  -0.727874   0.031384
  160  H  4 YY    0.000654  -0.000511  -0.010981  -0.727874   0.031385
  161  H  4 ZZ    0.000711  -0.000435  -0.010982  -0.727874   0.031362
  162  H  4 XY    0.000335  -0.000249  -0.000284  -0.036967  -0.016129
  163  H  4 XZ   -0.000356   0.000220   0.000283   0.036967   0.016122
  164  H  4 YZ    0.000360  -0.000247  -0.000283  -0.036967  -0.016120
  165  H  4 XXX  -0.002530   0.001628  -0.045911   0.152495  -0.147644
  166  H  4 YYY   0.002770  -0.003456   0.045931  -0.152496   0.147860
  167  H  4 ZZZ  -0.004247   0.001455  -0.045890   0.152497  -0.147719
  168  H  4 XXY   0.001656  -0.001835   0.021465  -0.055322   0.077771
  169  H  4 XXZ  -0.002308   0.000952  -0.021447   0.055323  -0.077712
  170  H  4 YYX  -0.001525   0.000839  -0.021456   0.055322  -0.077681
  171  H  4 YYZ  -0.002283   0.000762  -0.021447   0.055323  -0.077715
  172  H  4 ZZX  -0.001372   0.001046  -0.021455   0.055322  -0.077660
  173  H  4 ZZY   0.001478  -0.001853   0.021464  -0.055322   0.077754
  174  H  4 XYZ   0.000554  -0.000382   0.002026   0.008604   0.018206
  175  H  5  S    0.198843   0.260481   0.045236 -11.481923   1.039949
  176  H  5  S    0.628963   0.823970  -3.487143   1.766399   0.816861
  177  H  5  S    0.011890   0.015419   0.829619   6.984845 -17.326159
  178  H  5  S    0.006134   0.008040  -0.044392   6.467990   1.217723
  179  H  5  X    0.001947   0.004173   0.134756   0.216025   3.658541
  180  H  5  Y   -0.008247   0.043936  -0.134703  -0.216025  -3.658268
  181  H  5  Z    0.044442   0.005010  -0.134668  -0.216025  -3.658006
  182  H  5  X   -0.004828  -0.005881  -0.096415   0.362350  -0.458384
  183  H  5  Y    0.003069   0.019283   0.096364  -0.362348   0.457855
  184  H  5  Z    0.017750   0.008440   0.096329  -0.362347   0.457342
  185  H  5  X    0.002465   0.003272   0.027772  -0.097678   0.103439
  186  H  5  Y   -0.002633  -0.001988  -0.027758   0.097677  -0.103311
  187  H  5  Z   -0.001227  -0.003027  -0.027748   0.097677  -0.103186
  188  H  5 XX    0.005009   0.006496  -0.086468  -1.230070   0.392470
  189  H  5 YY    0.004730   0.008621  -0.086468  -1.230070   0.392482
  190  H  5 ZZ    0.007058   0.006901  -0.086467  -1.230070   0.392495
  191  H  5 XY   -0.003537  -0.004695   0.014094   0.136369   0.160562
  192  H  5 XZ   -0.003601  -0.004648   0.014093   0.136369   0.160578
  193  H  5 YZ    0.003593   0.004707  -0.014090  -0.136369  -0.160594
  194  H  5 XX    0.000463   0.000605  -0.010983  -0.727878   0.031366
  195  H  5 YY    0.000454   0.000674  -0.010983  -0.727878   0.031365
  196  H  5 ZZ    0.000530   0.000618  -0.010982  -0.727878   0.031364
  197  H  5 XY    0.000234   0.000335  -0.000280  -0.036967  -0.016112
  198  H  5 XZ    0.000263   0.000314  -0.000280  -0.036967  -0.016114
  199  H  5 YZ   -0.000259  -0.000340   0.000280   0.036967   0.016117
  200  H  5 XXX   0.001781   0.002272   0.045944  -0.152501   0.147887
  201  H  5 YYY  -0.001540  -0.004100  -0.045921   0.152500  -0.147671
  202  H  5 ZZZ  -0.003543  -0.002621  -0.045906   0.152500  -0.147461
  203  H  5 XXY  -0.000996  -0.002231  -0.021459   0.055324  -0.077678
  204  H  5 XXZ  -0.001880  -0.001578  -0.021452   0.055324  -0.077587
  205  H  5 YYX   0.001127   0.001234   0.021469  -0.055324   0.077768
  206  H  5 YYZ  -0.001905  -0.001388  -0.021453   0.055324  -0.077584
  207  H  5 ZZX   0.000919   0.001387   0.021469  -0.055324   0.077765
  208  H  5 ZZY  -0.000813  -0.002194  -0.021459   0.055324  -0.077671
  209  H  5 XYZ   0.000399   0.000523   0.002023   0.008604   0.018189

                     11         12         13         14         15
                   17.7065    17.5173    17.5173    17.5173     0.4634
                     A          A          A          A          A   
    1  SI 1  S   18.135532   0.003146  -0.003475  -0.003454   0.533126
    2  SI 1  S    2.466158   0.000298  -0.000349  -0.000367  -5.595964
    3  SI 1  S   11.677878   0.002720  -0.002957  -0.002891 -11.153586
    4  SI 1  S  -20.100424  -0.003876   0.004295   0.004282  46.290156
    5  SI 1  X    0.000005  -1.162631   0.078627  -1.137400   0.000065
    6  SI 1  Y   -0.000237   1.042309   0.731697  -1.014778   0.000142
    7  SI 1  Z   -0.000474   0.462110  -1.452589  -0.572741   0.000283
    8  SI 1  X    0.000000  -0.106811   0.007226  -0.104494   0.000017
    9  SI 1  Y   -0.000022   0.095757   0.067221  -0.093229   0.000045
   10  SI 1  Z   -0.000044   0.042452  -0.133450  -0.052621   0.000090
   11  SI 1  X   -0.000003   0.891216  -0.060262   0.871910  -0.000029
   12  SI 1  Y    0.000190  -0.798987  -0.560897   0.777906  -0.000056
   13  SI 1  Z    0.000379  -0.354239   1.113503   0.439039  -0.000112
   14  SI 1  X    0.000011  -4.800312   0.324661  -4.696292   0.000136
   15  SI 1  Y   -0.001073   4.303521   3.021128  -4.189993   0.000291
   16  SI 1  Z   -0.002145   1.907950  -5.997590  -2.364833   0.000581
   17  SI 1 XX   -1.712007  -0.000311   0.000343   0.000340  -0.089980
   18  SI 1 YY   -1.712007  -0.000311   0.000343   0.000340  -0.089984
   19  SI 1 ZZ   -1.712007  -0.000311   0.000344   0.000340  -0.089988
   20  SI 1 XY    0.000006   0.012160  -0.038210  -0.015061  -0.000009
   21  SI 1 XZ    0.000003   0.027420   0.019248  -0.026694  -0.000004
   22  SI 1 YZ    0.000000  -0.030584   0.002063  -0.029924  -0.000001
   23  SI 1 XX   -6.869262  -0.001184   0.001301   0.001285  -2.040968
   24  SI 1 YY   -6.869262  -0.001184   0.001301   0.001285  -2.040958
   25  SI 1 ZZ   -6.869262  -0.001184   0.001300   0.001285  -2.040948
   26  SI 1 XY   -0.001308   1.072220  -3.370626  -1.329072   0.000165
   27  SI 1 XZ   -0.000654   2.418560   1.697860  -2.354754   0.000083
   28  SI 1 YZ    0.000004  -2.697765   0.182512  -2.639264   0.000034
   29  SI 1 XX    4.288150   0.000860  -0.000954  -0.000947 -11.847856
   30  SI 1 YY    4.288150   0.000860  -0.000954  -0.000947 -11.847846
   31  SI 1 ZZ    4.288150   0.000862  -0.000948  -0.000948 -11.847839
   32  SI 1 XY   -0.000165   0.159036  -0.499910  -0.197111   0.000503
   33  SI 1 XZ   -0.000083   0.358718   0.251810  -0.349227   0.000252
   34  SI 1 YZ    0.000002  -0.400129   0.027065  -0.391424   0.000098
   35  SI 1 XXX  -0.000001   0.154483  -0.010435   0.151142   0.000033
   36  SI 1 YYY   0.000029  -0.138499  -0.097227   0.134842   0.000093
   37  SI 1 ZZZ   0.000058  -0.061413   0.193015   0.076093   0.000186
   38  SI 1 XXY  -0.000180   0.680518   0.477729  -0.662558   0.000071
   39  SI 1 XXZ  -0.000364   0.301695  -0.948398  -0.373961   0.000145
   40  SI 1 YYX   0.000001  -0.759077   0.051347  -0.742613   0.000028
   41  SI 1 YYZ  -0.000364   0.301695  -0.948398  -0.373961   0.000145
   42  SI 1 ZZX   0.000001  -0.759075   0.051356  -0.742615   0.000028
   43  SI 1 ZZY  -0.000184   0.680514   0.477730  -0.662563   0.000074
   44  SI 1 XYZ  -0.283381  -0.000030   0.000032   0.000032  -0.006960
   45  SI 1 XXX  -0.000005   2.098815  -0.141931   2.053335   0.000013
   46  SI 1 YYY   0.000460  -1.881610  -1.320912   1.831962   0.000065
   47  SI 1 ZZZ   0.000919  -0.834218   2.622291   1.033944   0.000130
   48  SI 1 XXY   0.000064  -0.254430  -0.178623   0.247738   0.000201
   49  SI 1 XXZ   0.000124  -0.112805   0.354598   0.139815   0.000437
   50  SI 1 YYX  -0.000000   0.283802  -0.019196   0.277674   0.000079
   51  SI 1 YYZ   0.000124  -0.112805   0.354598   0.139815   0.000437
   52  SI 1 ZZX  -0.000000   0.283806  -0.019182   0.277671   0.000083
   53  SI 1 ZZY   0.000060  -0.254438  -0.178622   0.247731   0.000235
   54  SI 1 XYZ   1.342270   0.000274  -0.000299  -0.000295  -0.097301
   55  SI 1XXXX   1.614466   0.000257  -0.000288  -0.000285  -0.377702
   56  SI 1YYYY   1.614466   0.000257  -0.000288  -0.000285  -0.377712
   57  SI 1ZZZZ   1.614466   0.000259  -0.000282  -0.000286  -0.377720
   58  SI 1XXXY   0.000020   0.009812  -0.030805  -0.012134   0.000111
   59  SI 1XXXZ   0.000012   0.022115   0.015518  -0.021515   0.000053
   60  SI 1YYYX   0.000020   0.009812  -0.030805  -0.012134   0.000111
   61  SI 1YYYZ   0.000001  -0.024664   0.001649  -0.024123   0.000022
   62  SI 1ZZZX   0.000008   0.022108   0.015518  -0.021521   0.000059
   63  SI 1ZZZY   0.000001  -0.024660   0.001662  -0.024126   0.000023
   64  SI 1XXYY   1.377420   0.000229  -0.000259  -0.000252  -0.230808
   65  SI 1XXZZ   1.377420   0.000231  -0.000252  -0.000253  -0.230811
   66  SI 1YYZZ   1.377420   0.000231  -0.000252  -0.000253  -0.230813
   67  SI 1XXYZ   0.000001  -0.540887   0.036576  -0.529170   0.000029
   68  SI 1YYXZ  -0.000120   0.484911   0.340413  -0.472119   0.000068
   69  SI 1ZZXY  -0.000239   0.214988  -0.675795  -0.266460   0.000135
   70  H  2  S   34.789724  -7.370238  13.854848  58.806599   0.204872
   71  H  2  S   -7.853835   1.639759  -3.082486 -13.083566  -2.747715
   72  H  2  S  -24.778137   4.304846  -8.093124 -34.354387   1.461960
   73  H  2  S  -20.028511   4.059145  -7.630651 -32.388683  -0.120923
   74  H  2  X    0.969102  -0.240487  -0.004910  -0.339296  -0.093066
   75  H  2  Y    0.969048   0.237925   0.136794  -0.312689  -0.093043
   76  H  2  Z    0.968994   0.112038  -0.337145  -0.216774  -0.093010
   77  H  2  X   -3.507516   1.848849  -2.164581  -8.271039  -0.004569
   78  H  2  Y   -3.507355   0.477196  -2.570853  -8.347322  -0.004592
   79  H  2  Z   -3.507195   0.838130  -1.212026  -8.622315  -0.004621
   80  H  2  X    0.920897  -0.470749   0.555921   2.129587  -0.002362
   81  H  2  Y    0.920856  -0.126503   0.657883   2.148732  -0.002356
   82  H  2  Z    0.920816  -0.217087   0.316856   2.217747  -0.002348
   83  H  2 XX    3.598619  -0.872196   1.575365   6.641562  -0.046685
   84  H  2 YY    3.598610  -0.805039   1.595256   6.645297  -0.046684
   85  H  2 ZZ    3.598602  -0.822711   1.528728   6.658761  -0.046682
   86  H  2 XY    0.161544  -0.105457   0.204464   0.807589   0.026061
   87  H  2 XZ    0.161541  -0.111686   0.181019   0.812333   0.026061
   88  H  2 YZ    0.161539  -0.088020   0.188028   0.813649   0.026062
   89  H  2 XX    2.316188  -0.471091   0.918783   3.922947  -0.002186
   90  H  2 YY    2.316192  -0.505843   0.908489   3.921014  -0.002186
   91  H  2 ZZ    2.316196  -0.496698   0.942917   3.914047  -0.002186
   92  H  2 XY   -0.061605   0.019087  -0.043040  -0.114108  -0.001812
   93  H  2 XZ   -0.061602   0.026201  -0.016260  -0.119528  -0.001812
   94  H  2 YZ   -0.061599  -0.000832  -0.024266  -0.121031  -0.001812
   95  H  2 XXX   1.681241  -0.843090   0.931302   3.496153  -0.004202
   96  H  2 YYY   1.681161  -0.159211   1.133860   3.534186  -0.004193
   97  H  2 ZZZ   1.681082  -0.339167   0.456375   3.671291  -0.004182
   98  H  2 XXY   0.706230  -0.058262   0.456047   1.496093  -0.001809
   99  H  2 XXZ   0.706200  -0.124158   0.207964   1.546299  -0.001804
  100  H  2 YYX   0.706264  -0.351512   0.369189   1.479784  -0.001814
  101  H  2 YYZ   0.706205  -0.166984   0.195279   1.543917  -0.001804
  102  H  2 ZZX   0.706268  -0.340243   0.411614   1.471198  -0.001814
  103  H  2 ZZY   0.706239  -0.089819   0.485787   1.485126  -0.001810
  104  H  2 XYZ  -0.029508   0.023210  -0.043620  -0.185090   0.000735
  105  H  3  S   34.779483 -12.564065  48.834121 -34.096646   0.204969
  106  H  3  S   -7.851550   2.795304 -10.864833   7.585969  -2.747348
  107  H  3  S  -24.772170   7.339111 -28.528308  19.920670   1.462991
  108  H  3  S  -20.022923   6.919749 -26.896157  18.779505  -0.120957
  109  H  3  X   -0.969121  -0.272187   0.093929  -0.300043   0.093445
  110  H  3  Y   -0.969175   0.206226   0.235632  -0.273436   0.093477
  111  H  3  Z    0.969012   0.120192  -0.392043  -0.071008  -0.093462
  112  H  3  X    3.505771  -1.195315   7.407204  -4.497636   0.004661
  113  H  3  Y    3.505932  -2.566968   7.000933  -4.573919   0.004629
  114  H  3  Z   -3.505478   1.631091  -6.552457   5.561543  -0.004575
  115  H  3  X   -0.920448   0.311482  -1.903667   1.159970   0.002342
  116  H  3  Y   -0.920488   0.655728  -1.801705   1.179115   0.002351
  117  H  3  Z    0.920375  -0.420849   1.689150  -1.426979  -0.002365
  118  H  3 XX    3.597434  -1.391015   5.541671  -3.836172  -0.046634
  119  H  3 YY    3.597443  -1.458172   5.521780  -3.839906  -0.046635
  120  H  3 ZZ    3.597422  -1.412349   5.499818  -3.888269  -0.046635
  121  H  3 XY    0.161385  -0.176237   0.681143  -0.458408   0.026117
  122  H  3 XZ   -0.161380   0.160090  -0.673403   0.475456  -0.026113
  123  H  3 YZ   -0.161383   0.183756  -0.666394   0.476772  -0.026113
  124  H  3 XX    2.315515  -0.852634   3.244043  -2.282095  -0.002180
  125  H  3 YY    2.315511  -0.817881   3.254336  -2.280162  -0.002180
  126  H  3 ZZ    2.315522  -0.841593   3.265700  -2.255137  -0.002180
  127  H  3 XY   -0.061584   0.028546  -0.106737   0.055058  -0.001817
  128  H  3 XZ    0.061576  -0.010102   0.097899  -0.074526   0.001816
  129  H  3 YZ    0.061579  -0.037135   0.089892  -0.076029   0.001816
  130  H  3 XXX  -1.680494   0.461824  -3.171881   1.878626   0.004173
  131  H  3 YYY  -1.680573   1.145703  -2.969323   1.916659   0.004186
  132  H  3 ZZZ   1.680347  -0.679096   2.745724  -2.409070  -0.004211
  133  H  3 XXY  -0.705982   0.480544  -1.238188   0.828209   0.001809
  134  H  3 XXZ   0.705898  -0.309680   1.156310  -1.008522  -0.001819
  135  H  3 YYX  -0.705948   0.187294  -1.325046   0.811900   0.001802
  136  H  3 YYZ   0.705893  -0.266854   1.168994  -1.006140  -0.001819
  137  H  3 ZZX  -0.705959   0.216515  -1.339049   0.781064   0.001803
  138  H  3 ZZY  -0.705989   0.466939  -1.264876   0.794991   0.001809
  139  H  3 XYZ  -0.029472   0.039556  -0.153707   0.107288   0.000731
  140  H  4  S   34.769109 -37.609146 -45.453600 -15.015158   0.205052
  141  H  4  S   -7.849236   8.367442  10.112708   3.340633  -2.747084
  142  H  4  S  -24.766126  21.970641  26.555495   8.773008   1.463721
  143  H  4  S  -20.017260  20.713812  25.034558   8.270031  -0.120992
  144  H  4  X   -0.969140  -0.311497  -0.054024  -0.270116   0.093779
  145  H  4  Y    0.969087   0.285392   0.229837  -0.196842  -0.093747
  146  H  4  Z   -0.969250   0.041026  -0.386249  -0.147601   0.093773
  147  H  4  X    3.504042  -5.019050  -6.988084  -1.584422   0.004609
  148  H  4  Y   -3.503883   5.093903   6.483961   2.923352  -0.004629
  149  H  4  Z    3.504338  -6.029786  -6.035509  -1.935723   0.004664
  150  H  4  X   -0.920004   1.294041   1.795390   0.411382   0.002359
  151  H  4  Y    0.919964  -1.312827  -1.668870  -0.747414  -0.002354
  152  H  4  Z   -0.920077   1.547707   1.556321   0.499548   0.002345
  153  H  4 XX    3.596239  -4.234307  -5.162542  -1.669905  -0.046600
  154  H  4 YY    3.596231  -4.237972  -5.137854  -1.735476  -0.046597
  155  H  4 ZZ    3.596252  -4.283797  -5.115897  -1.687112  -0.046598
  156  H  4 XY   -0.161220   0.507618   0.634921   0.210694  -0.026150
  157  H  4 XZ    0.161225  -0.523765  -0.627183  -0.193645   0.026153
  158  H  4 YZ   -0.161222   0.525058   0.618479   0.216758  -0.026154
  159  H  4 XX    2.314832  -2.515742  -3.017078  -1.015003  -0.002174
  160  H  4 YY    2.314836  -2.513845  -3.029852  -0.981075  -0.002175
  161  H  4 ZZ    2.314824  -2.490133  -3.041215  -1.006101  -0.002174
  162  H  4 XY    0.061552  -0.062823  -0.100575  -0.034362   0.001818
  163  H  4 XZ   -0.061561   0.081267   0.091735   0.014894  -0.001820
  164  H  4 YZ    0.061558  -0.082742  -0.081798  -0.041286   0.001819
  165  H  4 XXX  -1.679754   2.100992   2.999116   0.629786   0.004202
  166  H  4 YYY   1.679676  -2.138312  -2.747770  -1.297348  -0.004195
  167  H  4 ZZZ  -1.679902   2.604922   2.524180   0.804936   0.004178
  168  H  4 XXY   0.705616  -0.920613  -1.143659  -0.543076  -0.001813
  169  H  4 XXZ  -0.705700   1.091478   1.061784   0.362763   0.001806
  170  H  4 YYX  -0.705649   0.904610   1.251438   0.256819   0.001817
  171  H  4 YYZ  -0.705704   1.089141   1.077524   0.320956   0.001807
  172  H  4 ZZX  -0.705638   0.875389   1.265439   0.287656   0.001817
  173  H  4 ZZY   0.705609  -0.889055  -1.173401  -0.532107  -0.001813
  174  H  4 XYZ  -0.029435   0.118379   0.143031   0.047238   0.000729
  175  H  5  S   34.758586  57.568580 -17.262927  -9.721983   0.205119
  176  H  5  S   -7.846890 -12.808092   3.840725   2.162985  -2.746923
  177  H  5  S  -24.759997 -33.633044  10.086158   5.680654   1.464151
  178  H  5  S  -20.011513 -31.707104   9.508037   5.354722  -0.121026
  179  H  5  X    0.969163  -0.342373   0.043924  -0.231745  -0.093916
  180  H  5  Y   -0.969216   0.316269   0.131889  -0.235212   0.093957
  181  H  5  Z   -0.969269   0.190387  -0.342029  -0.139302   0.093989
  182  H  5  X   -3.502275  -8.065586   2.586310   2.191532  -0.004659
  183  H  5  Y    3.502434   8.140440  -3.090433  -0.852602   0.004628
  184  H  5  Z    3.502593   8.501390  -1.731546  -1.127606   0.004605
  185  H  5  X    0.919550   2.076895  -0.664883  -0.558906  -0.002348
  186  H  5  Y   -0.919589  -2.095681   0.791403   0.222874   0.002356
  187  H  5  Z   -0.919629  -2.186269   0.450362   0.291892   0.002362
  188  H  5 XX    3.595025   6.500115  -1.957348  -1.138295  -0.046573
  189  H  5 YY    3.595033   6.503780  -1.982036  -1.072725  -0.046576
  190  H  5 ZZ    3.595041   6.521457  -1.915488  -1.086193  -0.046577
  191  H  5 XY   -0.161058  -0.789387   0.250776   0.138569  -0.026174
  192  H  5 XZ   -0.161061  -0.795619   0.227319   0.143315  -0.026175
  193  H  5 YZ    0.161063   0.796911  -0.236022  -0.120202   0.026175
  194  H  5 XX    2.314139   3.841135  -1.147575  -0.627653  -0.002170
  195  H  5 YY    2.314135   3.839238  -1.134800  -0.661581  -0.002170
  196  H  5 ZZ    2.314131   3.830092  -1.169234  -0.654612  -0.002170
  197  H  5 XY    0.061531   0.110490  -0.049245  -0.024725   0.001821
  198  H  5 XZ    0.061534   0.117605  -0.022460  -0.030145   0.001821
  199  H  5 YZ   -0.061537  -0.119080   0.032397   0.003753  -0.001821
  200  H  5 XXX   1.678998   3.407043  -1.105318  -0.988963  -0.004186
  201  H  5 YYY  -1.679077  -3.444364   1.356663   0.321401   0.004198
  202  H  5 ZZZ  -1.679156  -3.624327   0.679152   0.458512   0.004207
  203  H  5 XXY  -0.705362  -1.459900   0.551104   0.125324   0.001816
  204  H  5 XXZ  -0.705392  -1.525799   0.303009   0.175532   0.001820
  205  H  5 YYX   0.705329   1.443897  -0.443325  -0.411582  -0.001810
  206  H  5 YYZ  -0.705388  -1.523462   0.287268   0.217339   0.001820
  207  H  5 ZZX   0.705325   1.432626  -0.485754  -0.402995  -0.001810
  208  H  5 ZZY  -0.705354  -1.446293   0.577793   0.158544   0.001815
  209  H  5 XYZ  -0.029398  -0.181161   0.054313   0.030581   0.000728

                     16         17         18         19         20
                   11.3695    11.3695    11.3695    10.6721     1.2481
                     A          A          A          A          A   
    1  SI 1  S   -0.000028  -0.000926   0.000331  41.946874   0.000191
    2  SI 1  S    0.000253   0.001231  -0.000348  19.483301   0.002399
    3  SI 1  S   -0.000494  -0.002671   0.000778 -20.117335  -0.003351
    4  SI 1  S   -0.000141  -0.000805   0.000238 -24.980832  -0.004282
    5  SI 1  X   -1.354620   0.153396  -0.635519   0.000018   4.558389
    6  SI 1  Y    0.651657   0.199448  -1.340884   0.000133  -0.028283
    7  SI 1  Z    0.052487   1.482974   0.246065   0.000266   0.031872
    8  SI 1  X   -0.032906   0.003774  -0.015437   0.000000   0.475457
    9  SI 1  Y    0.015826   0.004848  -0.032577   0.000054  -0.002961
   10  SI 1  Z    0.001313   0.036021   0.005994   0.000107   0.003296
   11  SI 1  X    0.365385  -0.041494   0.171429  -0.000003  -0.921393
   12  SI 1  Y   -0.175757  -0.053803   0.361701  -0.000154   0.005727
   13  SI 1  Z   -0.014241  -0.400006  -0.066411  -0.000308  -0.006796
   14  SI 1  X   -9.773692   1.105766  -4.585520   0.000030   6.270435
   15  SI 1  Y    4.701709   1.438898  -9.674625  -0.000013  -0.038280
   16  SI 1  Z    0.377732  10.699661   1.774909  -0.000025   0.047068
   17  SI 1 XX    0.000000   0.000045  -0.000016  -2.155087   0.000012
   18  SI 1 YY    0.000000   0.000045  -0.000016  -2.155087   0.000012
   19  SI 1 ZZ    0.000001   0.000043  -0.000017  -2.155087   0.000012
   20  SI 1 XY   -0.033299  -0.944354  -0.156635   0.000096   0.004104
   21  SI 1 XZ   -0.414975  -0.126993   0.853873   0.000048  -0.003499
   22  SI 1 YZ    0.862619  -0.097543   0.404715  -0.000001   0.567875
   23  SI 1 XX    0.000133   0.000870  -0.000261  -4.699961   0.000762
   24  SI 1 YY    0.000133   0.000870  -0.000260  -4.699961   0.000762
   25  SI 1 ZZ    0.000137   0.000862  -0.000271  -4.699962   0.000761
   26  SI 1 XY    0.431905  12.240563   2.030413  -0.000638   0.007935
   27  SI 1 XZ    5.378884   1.646097 -11.067850  -0.000319  -0.007200
   28  SI 1 YZ  -11.181246   1.264669  -5.245860   0.000026   1.158803
   29  SI 1 XX    0.000027   0.000195  -0.000055   3.536678   0.001093
   30  SI 1 YY    0.000027   0.000195  -0.000055   3.536678   0.001093
   31  SI 1 ZZ    0.000031   0.000186  -0.000067   3.536678   0.001092
   32  SI 1 XY    0.058787   1.661671   0.275704   0.000227   0.036970
   33  SI 1 XZ    0.730199   0.223473  -1.502468   0.000114  -0.032783
   34  SI 1 YZ   -1.517870   0.171839  -0.712099   0.000012   5.273693
   35  SI 1 XXX  -0.614362   0.069557  -0.288254   0.000001   0.544226
   36  SI 1 YYY   0.295530   0.090454  -0.608150   0.000053  -0.003433
   37  SI 1 ZZZ   0.023770   0.672569   0.111580   0.000106   0.003542
   38  SI 1 XXY   1.438562   0.440239  -2.960018  -0.000000  -0.003092
   39  SI 1 XXZ   0.115569   3.273646   0.543046  -0.000033   0.003402
   40  SI 1 YYX  -2.990360   0.338310  -1.402946   0.000007   0.498724
   41  SI 1 YYZ   0.115569   3.273646   0.543046  -0.000033   0.003402
   42  SI 1 ZZX  -2.990346   0.338279  -1.402984   0.000007   0.498724
   43  SI 1 ZZY   1.438530   0.440243  -2.960033  -0.000033  -0.003111
   44  SI 1 XYZ   0.000015   0.000020  -0.000001   3.640849   0.000002
   45  SI 1 XXX   2.547472  -0.288202   1.195166  -0.000006   0.961231
   46  SI 1 YYY  -1.225500  -0.375035   2.521626   0.000012  -0.005740
[...]
  142  H  4  S    4.456858  -8.922013  -0.000002  -0.000006
  143  H  4  S    4.286849  -3.001829   0.000001  -0.000002
  144  H  4  X   -0.413396  -0.972496  -0.004641   0.001928
  145  H  4  Y    0.399670   0.983929  -0.003993  -0.003052
  146  H  4  Z   -0.422155  -1.131455   0.000650  -0.004986
  147  H  4  X    5.182203  -0.232552  -0.019902   0.008273
  148  H  4  Y   -5.247644   0.222342  -0.017119  -0.013095
  149  H  4  Z    5.140382  -0.090581   0.002783  -0.021373
  150  H  4  X   -1.255413   0.091976  -0.000154   0.000065
  151  H  4  Y    1.267642  -0.089523  -0.000133  -0.000102
  152  H  4  Z   -1.247598   0.057839   0.000022  -0.000166
  153  H  4 XX   -0.156011   0.741017  -0.002282   0.000948
  154  H  4 YY   -0.159090   0.739939   0.001963   0.001501
  155  H  4 ZZ   -0.154022   0.726129   0.000319  -0.002451
  156  H  4 XY   -0.335993   0.454110   0.000204  -0.001566
  157  H  4 XZ    0.229206  -0.531361  -0.001254  -0.000960
  158  H  4 YZ   -0.294360   0.537348  -0.001458   0.000606
  159  H  4 XX   -0.034832   0.019755  -0.000605   0.000252
  160  H  4 YY   -0.011564   0.020392   0.000521   0.000398
  161  H  4 ZZ   -0.049720   0.028515   0.000085  -0.000650
  162  H  4 XY   -0.160402  -0.320375   0.000125  -0.000960
  163  H  4 XZ    0.225553   0.391113  -0.000769  -0.000588
  164  H  4 YZ   -0.185801  -0.396595  -0.000894   0.000372
  165  H  4 XXX  -2.394209   0.125025   0.001841  -0.000764
  166  H  4 YYY   2.449831  -0.120869   0.001584   0.001210
  167  H  4 ZZZ  -2.358656   0.067274  -0.000257   0.001977
  168  H  4 XXY   0.905710   0.010926   0.001481  -0.000318
  169  H  4 XXZ  -0.942382  -0.032165  -0.001269   0.000826
  170  H  4 YYX  -0.855486  -0.008434   0.001351   0.000687
  171  H  4 YYZ  -0.869786  -0.031320   0.001016   0.001124
  172  H  4 ZZX  -0.974477   0.002494   0.000466  -0.001441
  173  H  4 ZZY   0.952105  -0.000847   0.000081   0.001512
  174  H  4 XYZ  -0.268025   0.091740  -0.000000   0.000000
  175  H  5  S    8.370928 -11.580912   0.000002  -0.000002
  176  H  5  S   -1.500198   2.815710   0.000017  -0.000021
  177  H  5  S   -4.471136  12.367326  -0.000002   0.000002
  178  H  5  S   -4.300930   4.160553   0.000000  -0.000000
  179  H  5  X   -0.414857  -1.395095   0.004641  -0.001929
  180  H  5  Y    0.401131   1.406528   0.003993   0.003054
  181  H  5  Z    0.423521   1.479169   0.000650  -0.004985
  182  H  5  X    5.199385  -0.279535   0.019902  -0.008277
  183  H  5  Y   -5.264826   0.269324   0.017118   0.013098
  184  H  5  Z   -5.158056   0.204449   0.002783  -0.021372
  185  H  5  X   -1.259563   0.117174   0.000154  -0.000064
  186  H  5  Y    1.271792  -0.114722   0.000133   0.000101
  187  H  5  Z    1.251840  -0.099136   0.000022  -0.000166
  188  H  5 XX    0.156452  -1.022818  -0.002282   0.000949
  189  H  5 YY    0.159532  -1.021740   0.001963   0.001501
  190  H  5 ZZ    0.154508  -1.014894   0.000319  -0.002451
  191  H  5 XY    0.336564  -0.676201   0.000204  -0.001566
  192  H  5 XZ    0.230263  -0.714243   0.001254   0.000960
  193  H  5 YZ   -0.295417   0.720230   0.001458  -0.000606
  194  H  5 XX    0.035002  -0.029970  -0.000605   0.000252
  195  H  5 YY    0.011734  -0.030607   0.000521   0.000398
  196  H  5 ZZ    0.049697  -0.034648   0.000085  -0.000650
  197  H  5 XY    0.161297   0.486955   0.000125  -0.000960
  198  H  5 XZ    0.226154   0.521790   0.000769   0.000588
  199  H  5 YZ   -0.186402  -0.527272   0.000894  -0.000372
  200  H  5 XXX  -2.402093   0.155846  -0.001841   0.000766
  201  H  5 YYY   2.457715  -0.151690  -0.001583  -0.001212
  202  H  5 ZZZ   2.366966  -0.125284  -0.000257   0.001977
  203  H  5 XXY   0.909021   0.017939  -0.001481   0.000317
  204  H  5 XXZ   0.945523   0.028406  -0.001269   0.000826
  205  H  5 YYX  -0.858797  -0.015446  -0.001351  -0.000686
  206  H  5 YYZ   0.872927   0.027562   0.001016   0.001124
  207  H  5 ZZX  -0.977242  -0.010079  -0.000466   0.001442
  208  H  5 ZZY   0.954870   0.011726  -0.000081  -0.001513
  209  H  5 XYZ   0.268906  -0.127109  -0.000000   0.000000
 ...... END OF RHF CALCULATION ......
 STEP CPU TIME =    49.74 TOTAL CPU TIME =       57.9 (    1.0 MIN)
 TOTAL WALL CLOCK TIME=       61.9 SECONDS, CPU UTILIZATION IS  93.40%

     ---------------------------------------------------------------------
     PROPERTIES FOR THE PBE      DFT FUNCTIONAL (RHF  TYPE) DENSITY MATRIX
     ---------------------------------------------------------------------

          -----------------
          ENERGY COMPONENTS
          -----------------

         WAVEFUNCTION NORMALIZATION =       1.0000000000

                ONE ELECTRON ENERGY =     -21.8765352047
                TWO ELECTRON ENERGY =       8.5843743289
           NUCLEAR REPULSION ENERGY =       7.0352112604
                                      ------------------
                       TOTAL ENERGY =      -6.2569496153

 ELECTRON-ELECTRON POTENTIAL ENERGY =       8.5843743289
  NUCLEUS-ELECTRON POTENTIAL ENERGY =     -25.6917740873
   NUCLEUS-NUCLEUS POTENTIAL ENERGY =       7.0352112604
                                      ------------------
             TOTAL POTENTIAL ENERGY =     -10.0721884980
               TOTAL KINETIC ENERGY =       3.8152388826
                 VIRIAL RATIO (V/T) =       2.6399889516

          ---------------------------------------
          MULLIKEN AND LOWDIN POPULATION ANALYSES
          ---------------------------------------

     ATOMIC MULLIKEN POPULATION IN EACH MOLECULAR ORBITAL

                      1          2          3          4

                  2.000000   2.000000   2.000000   2.000000

    1             1.372622   0.792668   0.792698   0.792693
    2             0.156657   0.021054   0.052632   0.831913
    3             0.156782   0.038281   0.576841   0.290409
    4             0.156907   0.344312   0.499175   0.061964
    5             0.157032   0.803684   0.078654   0.023021

               ----- POPULATIONS IN EACH AO -----
                             MULLIKEN      LOWDIN
              1  SI 1  S      1.85838     0.14882
              2  SI 1  S      0.12171     0.02919
              3  SI 1  S     -0.29006     0.09805
              4  SI 1  S     -0.40988     0.09884
              5  SI 1  X      0.41223     0.18204
              6  SI 1  Y      0.41225     0.18204
              7  SI 1  Z      0.41228     0.18204
              8  SI 1  X     -0.01968     0.01132
              9  SI 1  Y     -0.01968     0.01132
             10  SI 1  Z     -0.01968     0.01132
             11  SI 1  X      0.11298     0.06628
             12  SI 1  Y      0.11297     0.06628
             13  SI 1  Z      0.11297     0.06627
             14  SI 1  X      0.28970     0.14694
             15  SI 1  Y      0.28971     0.14694
             16  SI 1  Z      0.28971     0.14694
             17  SI 1 XX     -0.01283     0.03497
             18  SI 1 YY     -0.01283     0.03497
             19  SI 1 ZZ     -0.01283     0.03497
             20  SI 1 XY      0.00910     0.00431
             21  SI 1 XZ      0.00910     0.00431
             22  SI 1 YZ      0.00910     0.00431
             23  SI 1 XX      0.00246     0.07810
             24  SI 1 YY      0.00246     0.07810
             25  SI 1 ZZ      0.00246     0.07810
             26  SI 1 XY      0.00582     0.01788
             27  SI 1 XZ      0.00582     0.01788
             28  SI 1 YZ      0.00582     0.01788
             29  SI 1 XX      0.02039     0.03974
             30  SI 1 YY      0.02039     0.03974
             31  SI 1 ZZ      0.02039     0.03974
             32  SI 1 XY      0.01463     0.03447
             33  SI 1 XZ      0.01463     0.03447
             34  SI 1 YZ      0.01463     0.03447
             35  SI 1 XXX    -0.01852     0.07860
             36  SI 1 YYY    -0.01852     0.07860
             37  SI 1 ZZZ    -0.01852     0.07860
             38  SI 1 XXY    -0.00071     0.05106
             39  SI 1 XXZ    -0.00071     0.05106
             40  SI 1 YYX    -0.00071     0.05106
             41  SI 1 YYZ    -0.00071     0.05106
             42  SI 1 ZZX    -0.00071     0.05106
             43  SI 1 ZZY    -0.00071     0.05106
             44  SI 1 XYZ     0.00430     0.00116
             45  SI 1 XXX    -0.02356     0.10258
             46  SI 1 YYY    -0.02356     0.10258
             47  SI 1 ZZZ    -0.02357     0.10258
             48  SI 1 XXY    -0.00644     0.08165
             49  SI 1 XXZ    -0.00644     0.08165
             50  SI 1 YYX    -0.00644     0.08165
             51  SI 1 YYZ    -0.00644     0.08165
             52  SI 1 ZZX    -0.00644     0.08165
             53  SI 1 ZZY    -0.00644     0.08165
             54  SI 1 XYZ     0.00498     0.00900
             55  SI 1XXXX     0.00546     0.03749
             56  SI 1YYYY     0.00546     0.03749
             57  SI 1ZZZZ     0.00546     0.03749
             58  SI 1XXXY     0.00884     0.01519
             59  SI 1XXXZ     0.00884     0.01519
             60  SI 1YYYX     0.00884     0.01519
             61  SI 1YYYZ     0.00884     0.01519
             62  SI 1ZZZX     0.00884     0.01519
             63  SI 1ZZZY     0.00884     0.01519
             64  SI 1XXYY     0.01226     0.05275
             65  SI 1XXZZ     0.01226     0.05275
             66  SI 1YYZZ     0.01226     0.05275
             67  SI 1XXYZ     0.00660     0.01817
             68  SI 1YYXZ     0.00660     0.01817
             69  SI 1ZZXY     0.00660     0.01817
             70  H  2  S      1.53924     0.22650
             71  H  2  S     -0.16796     0.11345
             72  H  2  S     -0.27836     0.17018
             73  H  2  S     -0.06022     0.16923
             74  H  2  X      0.00405     0.01145
             75  H  2  Y      0.00405     0.01145
             76  H  2  Z      0.00405     0.01145
             77  H  2  X      0.00176     0.00151
             78  H  2  Y      0.00176     0.00151
             79  H  2  Z      0.00176     0.00151
             80  H  2  X      0.00010     0.00012
             81  H  2  Y      0.00010     0.00012
             82  H  2  Z      0.00010     0.00012
             83  H  2 XX      0.00360     0.05097
             84  H  2 YY      0.00360     0.05097
             85  H  2 ZZ      0.00360     0.05097
             86  H  2 XY      0.00017     0.00144
             87  H  2 XZ      0.00017     0.00144
             88  H  2 YZ      0.00017     0.00144
             89  H  2 XX      0.00028     0.03980
             90  H  2 YY      0.00028     0.03980
             91  H  2 ZZ      0.00028     0.03980
             92  H  2 XY      0.00002     0.00004
             93  H  2 XZ      0.00002     0.00004
             94  H  2 YZ      0.00002     0.00004
             95  H  2 XXX    -0.00011     0.00096
             96  H  2 YYY    -0.00011     0.00096
             97  H  2 ZZZ    -0.00011     0.00096
             98  H  2 XXY    -0.00001     0.00071
             99  H  2 XXZ    -0.00001     0.00071
            100  H  2 YYX    -0.00001     0.00071
            101  H  2 YYZ    -0.00001     0.00071
            102  H  2 ZZX    -0.00001     0.00071
            103  H  2 ZZY    -0.00001     0.00071
            104  H  2 XYZ     0.00001     0.00008
            105  H  3  S      1.53925     0.22650
            106  H  3  S     -0.16795     0.11345
            107  H  3  S     -0.27832     0.17018
            108  H  3  S     -0.06023     0.16923
            109  H  3  X      0.00406     0.01145
            110  H  3  Y      0.00406     0.01145
            111  H  3  Z      0.00405     0.01145
            112  H  3  X      0.00176     0.00151
            113  H  3  Y      0.00176     0.00151
            114  H  3  Z      0.00176     0.00151
            115  H  3  X      0.00010     0.00012
            116  H  3  Y      0.00010     0.00012
            117  H  3  Z      0.00010     0.00012
            118  H  3 XX      0.00360     0.05097
            119  H  3 YY      0.00360     0.05097
            120  H  3 ZZ      0.00360     0.05097
            121  H  3 XY      0.00017     0.00144
            122  H  3 XZ      0.00017     0.00144
            123  H  3 YZ      0.00017     0.00144
            124  H  3 XX      0.00028     0.03980
            125  H  3 YY      0.00028     0.03980
            126  H  3 ZZ      0.00028     0.03980
            127  H  3 XY      0.00002     0.00004
            128  H  3 XZ      0.00002     0.00004
            129  H  3 YZ      0.00002     0.00004
            130  H  3 XXX    -0.00012     0.00096
            131  H  3 YYY    -0.00012     0.00096
            132  H  3 ZZZ    -0.00012     0.00096
            133  H  3 XXY    -0.00001     0.00071
            134  H  3 XXZ    -0.00001     0.00071
            135  H  3 YYX    -0.00001     0.00071
            136  H  3 YYZ    -0.00001     0.00071
            137  H  3 ZZX    -0.00001     0.00071
            138  H  3 ZZY    -0.00001     0.00071
            139  H  3 XYZ     0.00001     0.00008
            140  H  4  S      1.53925     0.22650
            141  H  4  S     -0.16795     0.11345
            142  H  4  S     -0.27829     0.17018
            143  H  4  S     -0.06023     0.16923
            144  H  4  X      0.00406     0.01145
            145  H  4  Y      0.00406     0.01145
            146  H  4  Z      0.00408     0.01145
            147  H  4  X      0.00177     0.00151
            148  H  4  Y      0.00177     0.00151
            149  H  4  Z      0.00177     0.00151
            150  H  4  X      0.00010     0.00012
            151  H  4  Y      0.00010     0.00012
            152  H  4  Z      0.00010     0.00012
            153  H  4 XX      0.00360     0.05097
            154  H  4 YY      0.00360     0.05097
            155  H  4 ZZ      0.00360     0.05097
            156  H  4 XY      0.00017     0.00144
            157  H  4 XZ      0.00017     0.00144
            158  H  4 YZ      0.00017     0.00144
            159  H  4 XX      0.00028     0.03980
            160  H  4 YY      0.00028     0.03980
            161  H  4 ZZ      0.00028     0.03980
            162  H  4 XY      0.00002     0.00004
            163  H  4 XZ      0.00002     0.00004
            164  H  4 YZ      0.00002     0.00004
            165  H  4 XXX    -0.00012     0.00096
            166  H  4 YYY    -0.00012     0.00096
            167  H  4 ZZZ    -0.00012     0.00096
            168  H  4 XXY    -0.00001     0.00071
            169  H  4 XXZ    -0.00001     0.00071
            170  H  4 YYX    -0.00001     0.00071
            171  H  4 YYZ    -0.00001     0.00071
            172  H  4 ZZX    -0.00001     0.00071
            173  H  4 ZZY    -0.00001     0.00071
            174  H  4 XYZ     0.00001     0.00008
            175  H  5  S      1.53925     0.22650
            176  H  5  S     -0.16795     0.11345
            177  H  5  S     -0.27828     0.17018
            178  H  5  S     -0.06023     0.16923
            179  H  5  X      0.00407     0.01145
            180  H  5  Y      0.00407     0.01145
            181  H  5  Z      0.00407     0.01145
            182  H  5  X      0.00177     0.00151
            183  H  5  Y      0.00177     0.00151
            184  H  5  Z      0.00177     0.00151
            185  H  5  X      0.00010     0.00012
            186  H  5  Y      0.00010     0.00012
            187  H  5  Z      0.00010     0.00012
            188  H  5 XX      0.00360     0.05097
            189  H  5 YY      0.00360     0.05097
            190  H  5 ZZ      0.00360     0.05097
            191  H  5 XY      0.00017     0.00144
            192  H  5 XZ      0.00017     0.00144
            193  H  5 YZ      0.00017     0.00144
            194  H  5 XX      0.00028     0.03980
            195  H  5 YY      0.00028     0.03980
            196  H  5 ZZ      0.00028     0.03980
            197  H  5 XY      0.00002     0.00004
            198  H  5 XZ      0.00002     0.00004
            199  H  5 YZ      0.00002     0.00004
            200  H  5 XXX    -0.00012     0.00096
            201  H  5 YYY    -0.00012     0.00096
            202  H  5 ZZZ    -0.00012     0.00096
            203  H  5 XXY    -0.00001     0.00071
            204  H  5 XXZ    -0.00001     0.00071
            205  H  5 YYX    -0.00001     0.00071
            206  H  5 YYZ    -0.00001     0.00071
            207  H  5 ZZX    -0.00001     0.00071
            208  H  5 ZZY    -0.00001     0.00071
            209  H  5 XYZ     0.00001     0.00008

          ----- MULLIKEN ATOMIC OVERLAP POPULATIONS -----
          (OFF-DIAGONAL ELEMENTS NEED TO BE MULTIPLIED BY 2)

             1           2           3           4           5

    1    2.1517630
    2    0.3995402   0.7261294
    3    0.3996668  -0.0211325   0.7260819
    4    0.3997928  -0.0211378  -0.0211462   0.7260195
    5    0.3999184  -0.0211420  -0.0211569  -0.0211707   0.7259423

          TOTAL MULLIKEN AND LOWDIN ATOMIC POPULATIONS
       ATOM         MULL.POP.    CHARGE          LOW.POP.     CHARGE
    1 SI            3.750681    0.249319         3.989412    0.010588
    2 H             1.062257   -0.062257         1.002648   -0.002648
    3 H             1.062313   -0.062313         1.002647   -0.002647
    4 H             1.062358   -0.062358         1.002647   -0.002647
    5 H             1.062391   -0.062391         1.002646   -0.002646

          -------------------------------
          BOND ORDER AND VALENCE ANALYSIS     BOND ORDER THRESHOLD=0.050
          -------------------------------

                   BOND                       BOND                       BOND
  ATOM PAIR DIST  ORDER      ATOM PAIR DIST  ORDER      ATOM PAIR DIST  ORDER
    1   2  1.480  0.933        1   3  1.480  0.933        1   4  1.480  0.933
    1   5  1.480  0.933

                       TOTAL       BONDED        FREE
      ATOM            VALENCE     VALENCE     VALENCE
    1 SI                3.732       3.732       0.000
    2 H                 0.974       0.974       0.000
    3 H                 0.974       0.974      -0.000
    4 H                 0.974       0.974      -0.000
    5 H                 0.974       0.974       0.000

          ---------------------
          ELECTROSTATIC MOMENTS
          ---------------------

 POINT   1           X           Y           Z (BOHR)    CHARGE
                 0.000000    0.000000    0.000000        0.00 (A.U.)
         DX          DY          DZ         /D/  (DEBYE)
    -0.000000   -0.000008   -0.000015    0.000017
 ...... END OF PROPERTY EVALUATION ......
 STEP CPU TIME =     0.11 TOTAL CPU TIME =       58.0 (    1.0 MIN)
 TOTAL WALL CLOCK TIME=       62.1 SECONDS, CPU UTILIZATION IS  93.41%
               824473  WORDS OF DYNAMIC MEMORY USED
 EXECUTION OF GAMESS TERMINATED NORMALLY Sun May 31 17:30:00 2020
 DDI: 263640 bytes (0.3 MB / 0 MWords) used by master data server.

 ----------------------------------------
 CPU timing information for all processes
 ========================================
 0: 50.868 + 7.112 = 57.980
 ----------------------------------------
 ddikick.x: exited gracefully.
----- accounting info -----
Files used on the master node gwang18-p3 were:
-rw-rw-r-- 1 gwang18 gwang18     714206 5月  31 17:30 /home/gwang18/research/projects/si_gap/sih4/cis/pbe/qz/cis/20orb/hf.dat
-rw-rw-r-- 1 gwang18 gwang18       4730 5月  31 17:28 /home/gwang18/research/projects/si_gap/sih4/cis/pbe/qz/cis/20orb/hf.F05
-rw-rw-r-- 1 gwang18 gwang18 2505462688 5月  31 17:29 /home/gwang18/research/projects/si_gap/sih4/cis/pbe/qz/cis/20orb/hf.F08
-rw-rw-r-- 1 gwang18 gwang18   10012320 5月  31 17:30 /home/gwang18/research/projects/si_gap/sih4/cis/pbe/qz/cis/20orb/hf.F10
-rw-rw-r-- 1 gwang18 gwang18       4730 5月  31 17:28 /home/gwang18/research/projects/si_gap/sih4/cis/pbe/qz/cis/20orb/hf.inp
-rw-rw-r-- 1 gwang18 gwang18     676195 5月  31 17:30 /home/gwang18/research/projects/si_gap/sih4/cis/pbe/qz/cis/20orb/hf.out
2020年 05月 31日 星期日 17:30:04 EDT
0.0u 0.2s 1:05.61 0.4% 0+0k 592+24io 2pf+0w
