----- GAMESS execution script 'rungms' -----
This job is running on host gwang18-p3
under operating system Linux at 2020年 05月 29日 星期五 22:49:10 EDT
Available scratch disk space (Kbyte units) at beginning of the job is
Filesystem     1K-blocks      Used Available Use% Mounted on
/dev/sda6      216112148 162602860  42508304  80% /
GAMESS temporary binary files will be written to /home/gwang18/research/projects/si_gap/sih4/cis/5z/cis/30orb
GAMESS supplementary output files will be written to /home/gwang18/research/projects/si_gap/sih4/cis/5z/cis/30orb
Copying input file hf.inp to your run's scratch directory...

 Distributed Data Interface kickoff program.
 Initiating 1 compute processes on 1 nodes to run the following command:
 /home/gwang18/software/gamess/gamess.00.x hf 

          ******************************************************
          *         GAMESS VERSION =  5 DEC 2014 (R1)          *
          *             FROM IOWA STATE UNIVERSITY             *
          * M.W.SCHMIDT, K.K.BALDRIDGE, J.A.BOATZ, S.T.ELBERT, *
          *   M.S.GORDON, J.H.JENSEN, S.KOSEKI, N.MATSUNAGA,   *
          *          K.A.NGUYEN, S.J.SU, T.L.WINDUS,           *
          *       TOGETHER WITH M.DUPUIS, J.A.MONTGOMERY       *
          *         J.COMPUT.CHEM.  14, 1347-1363(1993)        *
          **************** 64 BIT LINUX VERSION ****************

  SINCE 1993, STUDENTS AND POSTDOCS WORKING AT IOWA STATE UNIVERSITY
  AND ALSO IN THEIR VARIOUS JOBS AFTER LEAVING ISU HAVE MADE IMPORTANT
  CONTRIBUTIONS TO THE CODE:
     IVANA ADAMOVIC, CHRISTINE AIKENS, YURI ALEXEEV, POOJA ARORA,
     ANDREY ASADCHEV, ROB BELL, PRADIPTA BANDYOPADHYAY, JONATHAN BENTZ,
     BRETT BODE, KURT BRORSEN, CALEB CARLIN, GALINA CHABAN, WEI CHEN,
     CHEOL HO CHOI, PAUL DAY, ALBERT DEFUSCO, NUWAN DESILVA, TIM DUDLEY,
     DMITRI FEDOROV, GRAHAM FLETCHER, MARK FREITAG, KURT GLAESEMANN,
     DAN KEMP, GRANT MERRILL, NORIYUKI MINEZAWA, JONATHAN MULLIN,
     TAKESHI NAGATA, SEAN NEDD, HEATHER NETZLOFF, BOSILJKA NJEGIC, RYAN OLSON,
     MIKE PAK, SPENCER PRUITT, LUKE ROSKOP, JIM SHOEMAKER, LYUDMILA SLIPCHENKO,
     TONY SMITH, SAROM SOK, JIE SONG, TETSUYA TAKETSUGU, SIMON WEBB,
     PENG XU, SOOHAENG YOO, FEDERICO ZAHARIEV

  ADDITIONAL CODE HAS BEEN PROVIDED BY COLLABORATORS IN OTHER GROUPS:
     IOWA STATE UNIVERSITY:
          JOE IVANIC, AARON WEST, LAIMUTIS BYTAUTAS, KLAUS RUEDENBERG
     UNIVERSITY OF TOKYO: KIMIHIKO HIRAO, TAKAHITO NAKAJIMA,
          TAKAO TSUNEDA, MUNEAKI KAMIYA, SUSUMU YANAGISAWA,
          KIYOSHI YAGI, MAHITO CHIBA, SEIKEN TOKURA, NAOAKI KAWAKAMI
     UNIVERSITY OF AARHUS: FRANK JENSEN
     UNIVERSITY OF IOWA: VISVALDAS KAIRYS, HUI LI
     NATIONAL INST. OF STANDARDS AND TECHNOLOGY: WALT STEVENS, DAVID GARMER
     UNIVERSITY OF PISA: BENEDETTA MENNUCCI, JACOPO TOMASI
     UNIVERSITY OF MEMPHIS: HENRY KURTZ, PRAKASHAN KORAMBATH
     UNIVERSITY OF ALBERTA: TOBY ZENG, MARIUSZ KLOBUKOWSKI
     UNIVERSITY OF NEW ENGLAND: MARK SPACKMAN
     MIE UNIVERSITY: HIROAKI UMEDA
     NAT. INST. OF ADVANCED INDUSTRIAL SCIENCE AND TECHNOLOGY: KAZUO KITAURA
     MICHIGAN STATE UNIVERSITY:
          KAROL KOWALSKI, MARTA WLOCH, JEFFREY GOUR, JESSE LUTZ,
          WEI LI, PIOTR PIECUCH
     UNIVERSITY OF SILESIA: MONIKA MUSIAL, STANISLAW KUCHARSKI
     FACULTES UNIVERSITAIRES NOTRE-DAME DE LA PAIX:
          OLIVIER QUINET, BENOIT CHAMPAGNE
     UNIVERSITY OF CALIFORNIA - SANTA BARBARA: BERNARD KIRTMAN
     INSTITUTE FOR MOLECULAR SCIENCE:
          KAZUYA ISHIMURA, MICHIO KATOUDA, AND SHIGERU NAGASE
     UNIVERSITY OF NOTRE DAME: ANNA POMOGAEVA, DAN CHIPMAN
     KYUSHU UNIVERSITY:
          HARUYUKI NAKANO,
          FENG LONG GU, JACEK KORCHOWIEC, MARCIN MAKOWSKI, AND YURIKO AOKI,
          HIROTOSHI MORI AND EISAKU MIYOSHI
     PENNSYLVANIA STATE UNIVERSITY:
          TZVETELIN IORDANOV, CHET SWALINA, JONATHAN SKONE,
          SHARON HAMMES-SCHIFFER
     WASEDA UNIVERSITY:
          MASATO KOBAYASHI, TOMOKO AKAMA, TSUGUKI TOUMA,
          TAKESHI YOSHIKAWA, YASUHIRO IKABATA, HIROMI NAKAI
     NANJING UNIVERSITY: SHUHUA LI
     UNIVERSITY OF NEBRASKA:
          PEIFENG SU, DEJUN SI, NANDUN THELLAMUREGE, YALI WANG, HUI LI
     UNIVERSITY OF ZURICH: ROBERTO PEVERATI, KIM BALDRIDGE
     N. COPERNICUS UNIVERSITY AND JACKSON STATE UNIVERSITY:
          MARIA BARYSZ
     UNIVERSITY OF COPENHAGEN: CASPER STEINMANN
     TOKYO INSTITUTE OF TECHNOLOGY: HIROYA NAKATA
     NAGOYA UNIVERSITY: YOSHIO NISHIMOTO, STEPHAN IRLE

 EXECUTION OF GAMESS BEGUN Fri May 29 22:49:10 2020

            ECHO OF THE FIRST FEW INPUT CARDS -
 INPUT CARD> $CONTRL                                                                        
 INPUT CARD>     SCFTYP=RHF                                                                 
 INPUT CARD>     MULT=1                                                                     
 INPUT CARD>     ICHARG=0                                                                   
 INPUT CARD>     RUNTYP=energy                                                              
 INPUT CARD>     MAXIT=200                                                                  
 INPUT CARD>     PP=READ                                                                    
 INPUT CARD>     UNITS=ANGS                                                                 
 INPUT CARD> !    ICUT=12                                                                   
 INPUT CARD> $END                                                                           
 INPUT CARD>                                                                                
 INPUT CARD> $SYSTEM                                                                        
 INPUT CARD>    MWORDS=1000                                                                 
 INPUT CARD>    MEMDDI=1000                                                                 
 INPUT CARD> $END                                                                           
 INPUT CARD>                                                                                
 INPUT CARD> $GUESS                                                                         
 INPUT CARD>    GUESS=HUCKEL                                                                
 INPUT CARD>!    GUESS=MOREAD                                                               
 INPUT CARD>!    NORB=94                                                                    
 INPUT CARD>!    PUNMO=.T.                                                                  
 INPUT CARD> $END                                                                           
 INPUT CARD>                                                                                
 INPUT CARD> $SCF FDIFF=.F. DAMP=.T. SOSCF=.F. SHIFT=.T. RSTRCT=.T. DIIS=.T.  $end          
 INPUT CARD>                                                                                
 INPUT CARD>                                                                                
 INPUT CARD>! $MCSCF                                                                        
 INPUT CARD>!      CISTEP=GUGA                                                              
 INPUT CARD>! $END                                                                          
 INPUT CARD>                                                                                
 INPUT CARD>! $CIDRT                                                                        
 INPUT CARD>!      NPRT=2                                                                   
 INPUT CARD>!      NFZC=0                                                                   
 INPUT CARD>!      NDOC=4                                                                   
 INPUT CARD>! !     NAOS=1                                                                  
 INPUT CARD>! !     NBOS=1                                                                  
 INPUT CARD>!      NVAL=30                                                                  
 INPUT CARD>!      IEXCIT=1                                                                 
 INPUT CARD>!      GROUP=C1                                                                 
 INPUT CARD>! $END                                                                          
 INPUT CARD>!                                                                               
 INPUT CARD>! $GUGDIA NSTATE=2 $END                                                         
 INPUT CARD>!                                                                               
 INPUT CARD>! $GUGDM NFLGDM(1)=1,1 IROOT=2 $END                                             
 INPUT CARD>!                                                                               
 INPUT CARD>! $GUGDIA PRTTOL=0.0001 $END                                                    
 INPUT CARD>                                                                                
 INPUT CARD>! $CIS                                                                          
 INPUT CARD>!      HAMTYP=SAPS MULT=1 NACORE=0 NSTATE=1 IROOT=1                             
 INPUT CARD>! $END                                                                          
 1000000000 WORDS OF MEMORY AVAILABLE


     RUN TITLE
     ---------
 Silane CIS calculation                                                          

 THE POINT GROUP OF THE MOLECULE IS C1      
 THE ORDER OF THE PRINCIPAL AXIS IS     0
 *** WARNING! ATOM   1 SHELL    6 TYPE P HAS NORMALIZATION   0.99999860

 ATOM      ATOMIC                      COORDINATES (BOHR)
           CHARGE         X                   Y                   Z
 SI         14.0     0.0000000000        0.0000000000        0.0000000000
 H           1.0     1.6145818839        1.6145818839        1.6145818839
 H           1.0    -1.6145818839       -1.6145818839        1.6145818839
 H           1.0    -1.6145818839        1.6145818839       -1.6145818839
 H           1.0     1.6145818839       -1.6145818839       -1.6145818839

          INTERNUCLEAR DISTANCES (ANGS.)
          ------------------------------

                1 SI         2 H          3 H          4 H          5 H     

   1 SI      0.0000000    1.4798642 *  1.4798642 *  1.4798642 *  1.4798642 *
   2 H       1.4798642 *  0.0000000    2.4166081 *  2.4166081 *  2.4166081 *
   3 H       1.4798642 *  2.4166081 *  0.0000000    2.4166081 *  2.4166081 *
   4 H       1.4798642 *  2.4166081 *  2.4166081 *  0.0000000    2.4166081 *
   5 H       1.4798642 *  2.4166081 *  2.4166081 *  2.4166081 *  0.0000000  

  * ... LESS THAN  3.000


     ATOMIC BASIS SET
     ----------------
 THE CONTRACTED PRIMITIVE FUNCTIONS HAVE BEEN UNNORMALIZED
 THE CONTRACTED BASIS FUNCTIONS ARE NOW NORMALIZED TO UNITY

  SHELL TYPE  PRIMITIVE        EXPONENT          CONTRACTION COEFFICIENT(S)

 SI        

      1   S       1             9.9982740    0.002893997896
      1   S       2             5.5176440   -0.014522989441
      1   S       3             3.0449650    0.077633943557
      1   S       4             1.6803930   -0.224021837126
      1   S       5             0.9273410   -0.149079891612
      1   S       6             0.5117620    0.085943937515
      1   S       7             0.2824210    0.355393741613
      1   S       8             0.1558570    0.445218676307
      1   S       9             0.0860110    0.267229805712
      1   S      10             0.0474660    0.060786955805

      2   S      11             0.7006250    1.000000000000

      3   S      12             0.3188640    1.000000000000

      4   S      13             0.1451200    1.000000000000

      5   S      14             0.0660460    1.000000000000

      6   P      15             5.0278680   -0.003241995466
      6   P      16             2.8677510    0.010648985106
      6   P      17             1.6356830   -0.049760930401
      6   P      18             0.9329470   -0.000016999976
      6   P      19             0.5321260    0.106059851657
      6   P      20             0.3035090    0.236201669632
      6   P      21             0.1731130    0.310664565483
      6   P      22             0.0987390    0.294695587818
      6   P      23             0.0563180    0.153897784748
      6   P      24             0.0321220    0.042336940785

      7   P      25             1.3369680    1.000000000000

      8   P      26             0.6520350    1.000000000000

      9   P      27             0.3179950    1.000000000000

     10   P      28             0.1550850    1.000000000000

     11   D      29             2.1459830    1.000000000000

     12   D      30             0.8289290    1.000000000000

     13   D      31             0.3201900    1.000000000000

     14   D      32             0.1236800    1.000000000000

     15   F      33             0.7567750    1.000000000000

     16   F      34             0.3576070    1.000000000000

     17   F      35             0.1689840    1.000000000000

     18   G      36             0.7028960    1.000000000000

     19   G      37             0.3168790    1.000000000000

 H         

     20   S      38            23.8431850    0.004114899701
     20   S      39            10.2124430    0.010464399240
     20   S      40             4.3741640    0.028011097966
     20   S      41             1.8735290    0.075886194491
     20   S      42             0.8024650    0.182106186780
     20   S      43             0.3437090    0.348521374698
     20   S      44             0.1472170    0.378231272542
     20   S      45             0.0630550    0.116424091548

     21   S      46             0.0680250    1.000000000000

     22   S      47             0.1718600    1.000000000000

     23   S      48             0.4341930    1.000000000000

     24   S      49             1.0969590    1.000000000000

     25   P      50             0.2368750    1.000000000000

     26   P      51             0.6410660    1.000000000000

     27   P      52             1.7349490    1.000000000000

     28   P      53             4.6953790    1.000000000000

     29   D      54             0.4517460    1.000000000000

     30   D      55             1.1550250    1.000000000000

     31   D      56             2.9531680    1.000000000000

     32   F      57             1.1008980    1.000000000000

     33   F      58             2.9689360    1.000000000000

     34   G      59             1.8198500    1.000000000000

 H         

     35   S      60            23.8431850    0.004114899701
     35   S      61            10.2124430    0.010464399240
     35   S      62             4.3741640    0.028011097966
     35   S      63             1.8735290    0.075886194491
     35   S      64             0.8024650    0.182106186780
     35   S      65             0.3437090    0.348521374698
     35   S      66             0.1472170    0.378231272542
     35   S      67             0.0630550    0.116424091548

     36   S      68             0.0680250    1.000000000000

     37   S      69             0.1718600    1.000000000000

     38   S      70             0.4341930    1.000000000000

     39   S      71             1.0969590    1.000000000000

     40   P      72             0.2368750    1.000000000000

     41   P      73             0.6410660    1.000000000000

     42   P      74             1.7349490    1.000000000000

     43   P      75             4.6953790    1.000000000000

     44   D      76             0.4517460    1.000000000000

     45   D      77             1.1550250    1.000000000000

     46   D      78             2.9531680    1.000000000000

     47   F      79             1.1008980    1.000000000000

     48   F      80             2.9689360    1.000000000000

     49   G      81             1.8198500    1.000000000000

 H         

     50   S      82            23.8431850    0.004114899701
     50   S      83            10.2124430    0.010464399240
     50   S      84             4.3741640    0.028011097966
     50   S      85             1.8735290    0.075886194491
     50   S      86             0.8024650    0.182106186780
     50   S      87             0.3437090    0.348521374698
     50   S      88             0.1472170    0.378231272542
     50   S      89             0.0630550    0.116424091548

     51   S      90             0.0680250    1.000000000000

     52   S      91             0.1718600    1.000000000000

     53   S      92             0.4341930    1.000000000000

     54   S      93             1.0969590    1.000000000000

     55   P      94             0.2368750    1.000000000000

     56   P      95             0.6410660    1.000000000000

     57   P      96             1.7349490    1.000000000000

     58   P      97             4.6953790    1.000000000000

     59   D      98             0.4517460    1.000000000000

     60   D      99             1.1550250    1.000000000000

     61   D     100             2.9531680    1.000000000000

     62   F     101             1.1008980    1.000000000000

     63   F     102             2.9689360    1.000000000000

     64   G     103             1.8198500    1.000000000000

 H         

     65   S     104            23.8431850    0.004114899701
     65   S     105            10.2124430    0.010464399240
     65   S     106             4.3741640    0.028011097966
     65   S     107             1.8735290    0.075886194491
     65   S     108             0.8024650    0.182106186780
     65   S     109             0.3437090    0.348521374698
     65   S     110             0.1472170    0.378231272542
     65   S     111             0.0630550    0.116424091548

     66   S     112             0.0680250    1.000000000000

     67   S     113             0.1718600    1.000000000000

     68   S     114             0.4341930    1.000000000000

     69   S     115             1.0969590    1.000000000000

     70   P     116             0.2368750    1.000000000000

     71   P     117             0.6410660    1.000000000000

     72   P     118             1.7349490    1.000000000000

     73   P     119             4.6953790    1.000000000000

     74   D     120             0.4517460    1.000000000000

     75   D     121             1.1550250    1.000000000000

     76   D     122             2.9531680    1.000000000000

     77   F     123             1.1008980    1.000000000000

     78   F     124             2.9689360    1.000000000000

     79   G     125             1.8198500    1.000000000000

 TOTAL NUMBER OF BASIS SET SHELLS             =   79
 NUMBER OF CARTESIAN GAUSSIAN BASIS FUNCTIONS =  384
 NUMBER OF ELECTRONS                          =   18
 CHARGE OF MOLECULE                           =    0
 SPIN MULTIPLICITY                            =    1
 NUMBER OF OCCUPIED ORBITALS (ALPHA)          =    9
 NUMBER OF OCCUPIED ORBITALS (BETA )          =    9
 TOTAL NUMBER OF ATOMS                        =    5
 THE NUCLEAR REPULSION ENERGY IS       21.3386114148
 NOTE THIS RUN IS USING CORE POTENTIALS, AND THE NUMBER OF ELECTRONS,
 OCCUPIED ORBITALS, AND NUCLEAR REPULSION ENERGY WILL BE ADJUSTED BELOW
 AFTER REMOVAL OF THE CORE CHARGES.

     $CONTRL OPTIONS
     ---------------
 SCFTYP=RHF          RUNTYP=ENERGY       EXETYP=RUN     
 MPLEVL=       0     CITYP =NONE         CCTYP =NONE         VBTYP =NONE    
 DFTTYP=NONE         TDDFT =NONE    
 MULT  =       1     ICHARG=       0     NZVAR =       0     COORD =UNIQUE  
 PP    =READ         RELWFN=NONE         LOCAL =NONE         NUMGRD=       F
 ISPHER=      -1     NOSYM =       0     MAXIT =     200     UNITS =ANGS    
 PLTORB=       F     MOLPLT=       F     AIMPAC=       F     FRIEND=        
 NPRINT=       7     IREST =       0     GEOM  =INPUT   
 NORMF =       0     NORMP =       0     ITOL  =      20     ICUT  =       9
 INTTYP=BEST         GRDTYP=BEST         QMTTOL= 1.0E-06

     $SYSTEM OPTIONS
     ---------------
  REPLICATED MEMORY=  1000000000 WORDS (ON EVERY NODE).
 DISTRIBUTED MEMDDI=        1000 MILLION WORDS IN AGGREGATE,
 MEMDDI DISTRIBUTED OVER   1 PROCESSORS IS  1000000000 WORDS/PROCESSOR.
 TOTAL MEMORY REQUESTED ON EACH PROCESSOR=  2000000000 WORDS.
 TIMLIM=      525600.00 MINUTES, OR     365.0 DAYS.
 PARALL= F  BALTYP=  DLB     KDIAG=    0  COREFL= F
 MXSEQ2=     300 MXSEQ3=     150  mem10=         0

          --------------
          ECP POTENTIALS
          --------------

 PARAMETERS FOR "SI-CCECP" ON ATOM    1 WITH ZCORE  10 AND LMAX  2 ARE
 FOR L= 2      COEFF    N           ZETA
    1        4.00000    1        5.16832
    2       20.67326    3        8.86169
    3      -14.81817    2        3.93347
 FOR L= 0      COEFF    N           ZETA
    1       14.83276    2        9.44702
    2       26.34966    2        2.55381
 FOR L= 1      COEFF    N           ZETA
    1        7.62140    2        3.66000
    2       10.33158    2        1.90365

 PARAMETERS FOR "H-CCECP " ON ATOM    2 WITH ZCORE   0 AND LMAX  1 ARE
 FOR L= 1      COEFF    N           ZETA
    1        1.00000    1       21.24360
    2       21.24360    3       21.24360
    3      -10.85192    2       21.77697
 FOR L= 0      COEFF    N           ZETA
    1        0.00000    2        1.00000

 PARAMETERS FOR "H-CCECP " ON ATOM    3 ARE THE SAME AS ATOM   2

 PARAMETERS FOR "H-CCECP " ON ATOM    4 ARE THE SAME AS ATOM   2

 PARAMETERS FOR "H-CCECP " ON ATOM    5 ARE THE SAME AS ATOM   2

 THE ECP RUN REMOVES   10 CORE ELECTRONS, AND THE SAME NUMBER OF PROTONS.
 NUMBER OF ELECTRONS KEPT IN THE CALCULATION IS =    8
 NUMBER OF OCCUPIED ORBITALS (ALPHA) KEPT IS    =    4
 NUMBER OF OCCUPIED ORBITALS (BETA ) KEPT IS    =    4
 THE ADJUSTED NUCLEAR REPULSION ENERGY=        7.0352112604
          ECP ANGULAR INTS.........     0.03 SECONDS

          ----------------
          PROPERTIES INPUT
          ----------------

     MOMENTS            FIELD           POTENTIAL          DENSITY
 IEMOM =       1   IEFLD =       0   IEPOT =       0   IEDEN =       0
 WHERE =COMASS     WHERE =NUCLEI     WHERE =NUCLEI     WHERE =NUCLEI  
 OUTPUT=BOTH       OUTPUT=BOTH       OUTPUT=BOTH       OUTPUT=BOTH    
 IEMINT=       0   IEFINT=       0                     IEDINT=       0
                                                       MORB  =       0
          EXTRAPOLATION IN EFFECT
          DAMPING IN EFFECT
          LEVEL SHIFTING IN EFFECT
          RESTRICTION OF ORBITAL MIXING IN EFFECT
          DIIS IN EFFECT
 ORBITAL PRINTING OPTION: NPREO=     1   384     2     1

     -------------------------------
     INTEGRAL TRANSFORMATION OPTIONS
     -------------------------------
     NWORD  =            0
     CUTOFF = 1.0E-09     MPTRAN =       0
     DIRTRF =       F     AOINTS =DUP     

          ----------------------
          INTEGRAL INPUT OPTIONS
          ----------------------
 NOPK  =       1 NORDER=       0 SCHWRZ=       F

     ------------------------------------------
     THE POINT GROUP IS C1 , NAXIS= 0, ORDER= 1
     ------------------------------------------

     DIMENSIONS OF THE SYMMETRY SUBSPACES ARE
 A   =  384

 ..... DONE SETTING UP THE RUN .....
 STEP CPU TIME =     0.06 TOTAL CPU TIME =        0.1 (    0.0 MIN)
 TOTAL WALL CLOCK TIME=        0.1 SECONDS, CPU UTILIZATION IS 100.00%

          ********************
          1 ELECTRON INTEGRALS
          ********************
 TIME TO DO ORDINARY INTEGRALS=      0.00
 TIME TO DO      ECP INTEGRALS=      0.41
 ...... END OF ONE-ELECTRON INTEGRALS ......
 STEP CPU TIME =     0.41 TOTAL CPU TIME =        0.5 (    0.0 MIN)
 TOTAL WALL CLOCK TIME=        0.5 SECONDS, CPU UTILIZATION IS 100.00%

          -------------
          GUESS OPTIONS
          -------------
          GUESS =HUCKEL            NORB  =       0          NORDER=       0
          MIX   =       F          PRTMO =       F          PUNMO =       F
          TOLZ  = 1.0E-08          TOLE  = 1.0E-05
          SYMDEN=       F          PURIFY=       F

 INITIAL GUESS ORBITALS GENERATED BY HUCKEL   ROUTINE.
 HUCKEL GUESS REQUIRES   1044008 WORDS.

 STATISTICS FOR GENERATION OF SYMMETRY ORBITAL -Q- MATRIX
 NUMBER OF CARTESIAN ATOMIC ORBITALS=        384
 NUMBER OF SPHERICAL CONTAMINANTS DROPPED=     0
 NUMBER OF LINEARLY DEPENDENT MOS DROPPED=     2
 TOTAL NUMBER OF MOS IN VARIATION SPACE=     382

 ...WARNING (SYMORB.SRC)...
 THE INPUT BASIS SET CONTAINS APPROXIMATE LINEAR DEPENDENCE.
 THE SMALLEST EIGENVALUE OF THE OVERLAP MATRIX IS   2.080227E-08
 THERE ARE    2 EIGENVALUES LESS THAN QMTTOL=  1.00E-06
 EIGENVECTORS BELOW -QMTTOL- ARE DROPPED FROM THE MO SPACE,
 IN ORDER TO ELIMINATE THE APPROXIMATE LINEAR DEPENDENCE.

 THIS WILL MOST LIKELY CHANGE THE ENERGY ON THE ORDER OF TENS OF MICROHARTREES,
 DEPENDING ON THE NUMBER OF ORBITALS REMOVED.  THE VALUE OF QMTTOL CAN BE 
 CHANGED IN $CONTRL: JOBS WITH EIGENVALUES BELOW 1.0E-07 PROBABLY WON'T
 CONVERGE.  EIGENVALUES BETWEEN 1.0E-07 AND 1.0E-06 MAY REQUIRE LOOSENING OF
 THE DENSITY CRITERION (CONV IN $SCF), MORE ACCURATE INTEGRAL EVALUATION
 (ICUT=11 IN $CONTRL), MORE ACCURATE DIRECT SCF FOCK MATRIX
 CONSTRUCTION (FDIFF=.FALSE. IN $SCF), OR CHANGING THE SCF CONVERGER
 (DIIS=.TRUE. IN $SCF).

 SYMMETRIES FOR INITIAL GUESS ORBITALS FOLLOW.   BOTH SET(S).
     4 ORBITALS ARE OCCUPIED (    0 CORE ORBITALS).
     1=A        2=A        3=A        4=A        5=A        6=A        7=A   
     8=A        9=A       10=A       11=A       12=A       13=A       14=A   
 ...... END OF INITIAL ORBITAL SELECTION ......
 STEP CPU TIME =     0.60 TOTAL CPU TIME =        1.1 (    0.0 MIN)
 TOTAL WALL CLOCK TIME=        1.1 SECONDS, CPU UTILIZATION IS 100.00%

                    ----------------------
                    AO INTEGRAL TECHNOLOGY
                    ----------------------
     S,P,L SHELL ROTATED AXIS INTEGRALS, REPROGRAMMED BY
        KAZUYA ISHIMURA (IMS) AND JOSE SIERRA (SYNSTAR).
     S,P,D,L SHELL ROTATED AXIS INTEGRALS PROGRAMMED BY
        KAZUYA ISHIMURA (INSTITUTE FOR MOLECULAR SCIENCE).
     S,P,D,F,G SHELL TO TOTAL QUARTET ANGULAR MOMENTUM SUM 5,
        ERIC PROGRAM BY GRAHAM FLETCHER (ELORET AND NASA ADVANCED
        SUPERCOMPUTING DIVISION, AMES RESEARCH CENTER).
     S,P,D,F,G,L SHELL GENERAL RYS QUADRATURE PROGRAMMED BY
        MICHEL DUPUIS (PACIFIC NORTHWEST NATIONAL LABORATORY).

          --------------------
          2 ELECTRON INTEGRALS
          --------------------

 THE -PK- OPTION IS OFF, THE INTEGRALS ARE NOT IN SUPERMATRIX FORM.
 STORING   15000 INTEGRALS/RECORD ON DISK, USING 16 BYTES/INTEGRAL.
 TWO ELECTRON INTEGRAL EVALUATION REQUIRES  142885 WORDS OF MEMORY.
 II,JST,KST,LST =  1  1  1  1 NREC =         1 INTLOC =    1
 II,JST,KST,LST =  2  1  1  1 NREC =         1 INTLOC =    2
 II,JST,KST,LST =  3  1  1  1 NREC =         1 INTLOC =    7
 II,JST,KST,LST =  4  1  1  1 NREC =         1 INTLOC =   22
 II,JST,KST,LST =  5  1  1  1 NREC =         1 INTLOC =   56
 II,JST,KST,LST =  6  1  1  1 NREC =         1 INTLOC =  121
 II,JST,KST,LST =  7  1  1  1 NREC =         1 INTLOC =  220
 II,JST,KST,LST =  8  1  1  1 NREC =         1 INTLOC =  496
 II,JST,KST,LST =  9  1  1  1 NREC =         1 INTLOC = 1057
 II,JST,KST,LST = 10  1  1  1 NREC =         1 INTLOC = 2074
 II,JST,KST,LST = 11  1  1  1 NREC =         1 INTLOC = 3781
 II,JST,KST,LST = 12  1  1  1 NREC =         1 INTLOC = 9301
 II,JST,KST,LST = 13  1  1  1 NREC =         2 INTLOC = 5254
 II,JST,KST,LST = 14  1  1  1 NREC =         3 INTLOC = 9160
 II,JST,KST,LST = 15  1  1  1 NREC =         5 INTLOC = 9547
 II,JST,KST,LST = 16  1  1  1 NREC =        10 INTLOC =13688
 II,JST,KST,LST = 17  1  1  1 NREC =        20 INTLOC =  974
 II,JST,KST,LST = 18  1  1  1 NREC =        34 INTLOC = 9469
 II,JST,KST,LST = 19  1  1  1 NREC =        70 INTLOC = 1606
 II,JST,KST,LST = 20  1  1  1 NREC =       128 INTLOC =10936
 II,JST,KST,LST = 21  1  1  1 NREC =       167 INTLOC = 4801
 II,JST,KST,LST = 22  1  1  1 NREC =       207 INTLOC =  362
 II,JST,KST,LST = 23  1  1  1 NREC =       247 INTLOC =12937
 II,JST,KST,LST = 24  1  1  1 NREC =       289 INTLOC =12847
 II,JST,KST,LST = 25  1  1  1 NREC =       333 INTLOC =  416
 II,JST,KST,LST = 26  1  1  1 NREC =       469 INTLOC =11915
 II,JST,KST,LST = 27  1  1  1 NREC =       617 INTLOC =13475
 II,JST,KST,LST = 28  1  1  1 NREC =       777 INTLOC =13628
 II,JST,KST,LST = 29  1  1  1 NREC =       950 INTLOC = 5963
 II,JST,KST,LST = 30  1  1  1 NREC =      1335 INTLOC = 1358
 II,JST,KST,LST = 31  1  1  1 NREC =      1776 INTLOC = 9050
 II,JST,KST,LST = 32  1  1  1 NREC =      2279 INTLOC = 8951
 II,JST,KST,LST = 33  1  1  1 NREC =      3267 INTLOC =  131
 II,JST,KST,LST = 34  1  1  1 NREC =      4459 INTLOC =13954
 II,JST,KST,LST = 35  1  1  1 NREC =      6682 INTLOC =13549
 II,JST,KST,LST = 36  1  1  1 NREC =      6855 INTLOC = 9468
 II,JST,KST,LST = 37  1  1  1 NREC =      7031 INTLOC = 2051
 II,JST,KST,LST = 38  1  1  1 NREC =      7209 INTLOC = 7883
 II,JST,KST,LST = 39  1  1  1 NREC =      7390 INTLOC =12383
 II,JST,KST,LST = 40  1  1  1 NREC =      7567 INTLOC = 6617
 II,JST,KST,LST = 41  1  1  1 NREC =      8136 INTLOC = 5391
 II,JST,KST,LST = 42  1  1  1 NREC =      8732 INTLOC = 1976
 II,JST,KST,LST = 43  1  1  1 NREC =      9271 INTLOC = 1796
 II,JST,KST,LST = 44  1  1  1 NREC =      9765 INTLOC = 7273
 II,JST,KST,LST = 45  1  1  1 NREC =     11145 INTLOC =13777
 II,JST,KST,LST = 46  1  1  1 NREC =     12610 INTLOC = 1226
 II,JST,KST,LST = 47  1  1  1 NREC =     13949 INTLOC =10064
 II,JST,KST,LST = 48  1  1  1 NREC =     16890 INTLOC = 3589
 II,JST,KST,LST = 49  1  1  1 NREC =     19750 INTLOC =11948
 II,JST,KST,LST = 50  1  1  1 NREC =     25112 INTLOC = 5171
 II,JST,KST,LST = 51  1  1  1 NREC =     25570 INTLOC = 1942
 II,JST,KST,LST = 52  1  1  1 NREC =     26033 INTLOC =14603
 II,JST,KST,LST = 53  1  1  1 NREC =     26503 INTLOC = 2237
 II,JST,KST,LST = 54  1  1  1 NREC =     26973 INTLOC = 2937
 II,JST,KST,LST = 55  1  1  1 NREC =     27403 INTLOC = 7082
 II,JST,KST,LST = 56  1  1  1 NREC =     28871 INTLOC = 4339
 II,JST,KST,LST = 57  1  1  1 NREC =     30364 INTLOC =10323
 II,JST,KST,LST = 58  1  1  1 NREC =     31572 INTLOC = 9831
 II,JST,KST,LST = 59  1  1  1 NREC =     32570 INTLOC = 3718
 II,JST,KST,LST = 60  1  1  1 NREC =     35915 INTLOC = 1538
 II,JST,KST,LST = 61  1  1  1 NREC =     39240 INTLOC =  837
 II,JST,KST,LST = 62  1  1  1 NREC =     41909 INTLOC =11049
 II,JST,KST,LST = 63  1  1  1 NREC =     48329 INTLOC =12975
 II,JST,KST,LST = 64  1  1  1 NREC =     53772 INTLOC = 4996
 II,JST,KST,LST = 65  1  1  1 NREC =     64209 INTLOC = 2992
 II,JST,KST,LST = 66  1  1  1 NREC =     65150 INTLOC = 6247
 II,JST,KST,LST = 67  1  1  1 NREC =     66105 INTLOC =  620
 II,JST,KST,LST = 68  1  1  1 NREC =     67066 INTLOC = 5557
 II,JST,KST,LST = 69  1  1  1 NREC =     68015 INTLOC = 1957
 II,JST,KST,LST = 70  1  1  1 NREC =     68841 INTLOC = 1784
 II,JST,KST,LST = 71  1  1  1 NREC =     71815 INTLOC = 9419
 II,JST,KST,LST = 72  1  1  1 NREC =     74765 INTLOC =  137
 II,JST,KST,LST = 73  1  1  1 NREC =     76977 INTLOC =13316
 II,JST,KST,LST = 74  1  1  1 NREC =     78683 INTLOC =13895
 II,JST,KST,LST = 75  1  1  1 NREC =     85218 INTLOC =10436
 II,JST,KST,LST = 76  1  1  1 NREC =     91394 INTLOC = 7076
 II,JST,KST,LST = 77  1  1  1 NREC =     95953 INTLOC = 3602
 II,JST,KST,LST = 78  1  1  1 NREC =    107663 INTLOC = 1325
 II,JST,KST,LST = 79  1  1  1 NREC =    116718 INTLOC =  592
 TOTAL NUMBER OF NONZERO TWO-ELECTRON INTEGRALS =          2016775452
     134452 INTEGRAL RECORDS WERE STORED ON DISK FILE  8.
  ...... END OF TWO-ELECTRON INTEGRALS .....
 STEP CPU TIME =   111.93 TOTAL CPU TIME =      113.0 (    1.9 MIN)
 TOTAL WALL CLOCK TIME=      231.0 SECONDS, CPU UTILIZATION IS  48.92%

          --------------------------
                 RHF SCF CALCULATION
          --------------------------

     NUCLEAR ENERGY =         7.0352112604
     MAXIT =  200     NPUNCH=    2
     EXTRAP=T  DAMP=T  SHIFT=T  RSTRCT=T  DIIS=T  DEM=F  SOSCF=F
     DENSITY MATRIX CONV=  1.00E-05
     MEMORY REQUIRED FOR RHF ITERS=   1088208 WORDS.

 ITER EX DEM     TOTAL ENERGY        E CHANGE  DENSITY CHANGE    DIIS ERROR      VIR. SHIFT       DAMPING
          * * *   INITIATING DIIS PROCEDURE   * * *
   1  0  0       -5.9371065293    -5.9371065293   1.451371659   0.290682182     0.000000000     1.000000000
   2  1  0       -6.0798581062    -0.1427515769   0.087187971   0.036639624     0.000000000     1.000000000
   3  2  0       -6.0870023622    -0.0071442560   0.019692871   0.011469986     0.000000000     1.000000000
   4  3  0       -6.0877600427    -0.0007576805   0.005084925   0.002582800     0.000000000     1.000000000
   5  4  0       -6.0877934517    -0.0000334090   0.000687255   0.000194583     0.000000000     1.000000000
   6  5  0       -6.0877937988    -0.0000003472   0.000141321   0.000017038     0.000000000     1.000000000
   7  6  0       -6.0877938007    -0.0000000018   0.000014748   0.000000915     0.000000000     1.000000000
   8  7  0       -6.0877938007    -0.0000000000   0.000001433   0.000000218     0.000000000     1.000000000
   9  8  0       -6.0877938007     0.0000000000   0.000000086   0.000000019     0.000000000     1.000000000

          -----------------
          DENSITY CONVERGED
          -----------------
     TIME TO FORM FOCK OPERATORS=     692.7 SECONDS (      77.0 SEC/ITER)
     TIME TO SOLVE SCF EQUATIONS=       6.6 SECONDS (       0.7 SEC/ITER)

 FINAL RHF ENERGY IS       -6.0877938007 AFTER   9 ITERATIONS

          ------------
          EIGENVECTORS
          ------------

                      1          2          3          4          5
                   -0.7327    -0.4868    -0.4868    -0.4868     0.1098
                     A          A          A          A          A   
    1  SI 1  S    0.417417   0.000000  -0.000000   0.000000   0.000000
    2  SI 1  S   -0.124867   0.000000  -0.000000  -0.000000   0.000000
    3  SI 1  S   -0.005217   0.000000  -0.000000  -0.000000   0.000000
    4  SI 1  S    0.299582   0.000000  -0.000000  -0.000000   0.000000
    5  SI 1  S    0.018476  -0.000000   0.000000   0.000000  -0.000000
    6  SI 1  X   -0.000000   0.067891   0.091040  -0.013042  10.847799
    7  SI 1  Y    0.000000   0.012695  -0.025332  -0.110746  -3.071910
    8  SI 1  Z    0.000000   0.091089  -0.064324   0.025155   3.669734
    9  SI 1  X   -0.000000  -0.019447  -0.026078   0.003736   0.507270
   10  SI 1  Y   -0.000000  -0.003636   0.007256   0.031723  -0.143650
   11  SI 1  Z   -0.000000  -0.026092   0.018425  -0.007206   0.171606
   12  SI 1  X    0.000000   0.035901   0.048142  -0.006897  -2.543982
   13  SI 1  Y   -0.000000   0.006713  -0.013396  -0.058563   0.720412
   14  SI 1  Z   -0.000000   0.048168  -0.034015   0.013302  -0.860611
   15  SI 1  X   -0.000000   0.090000   0.120687  -0.017289  -2.251021
   16  SI 1  Y   -0.000000   0.016829  -0.033581  -0.146811   0.637450
   17  SI 1  Z    0.000000   0.120752  -0.085271   0.033347  -0.761504
   18  SI 1  X   -0.000000   0.022504   0.030177  -0.004323   5.592310
   19  SI 1  Y    0.000000   0.004208  -0.008397  -0.036709  -1.583646
   20  SI 1  Z    0.000000   0.030193  -0.021321   0.008338   1.891839
   21  SI 1 XX   -0.003339  -0.000000  -0.000000   0.000000  -0.000000
   22  SI 1 YY   -0.003339  -0.000000  -0.000000   0.000000  -0.000000
   23  SI 1 ZZ   -0.003339  -0.000000  -0.000000   0.000000  -0.000000
   24  SI 1 XY   -0.000000   0.008993  -0.006350   0.002483  -0.002433
   25  SI 1 XZ   -0.000000   0.001253  -0.002501  -0.010933   0.002037
   26  SI 1 YZ   -0.000000   0.006702   0.008988  -0.001288  -0.007193
   27  SI 1 XX    0.027540  -0.000000   0.000000  -0.000000  -0.000000
   28  SI 1 YY    0.027540  -0.000000  -0.000000  -0.000000  -0.000000
   29  SI 1 ZZ    0.027540  -0.000000   0.000000  -0.000000  -0.000000
   30  SI 1 XY    0.000000   0.020815  -0.014699   0.005748  -0.002634
   31  SI 1 XZ    0.000000   0.002901  -0.005789  -0.025307   0.002205
   32  SI 1 YZ   -0.000000   0.015514   0.020804  -0.002980  -0.007787
   33  SI 1 XX    0.019145  -0.000000  -0.000000  -0.000000   0.000000
   34  SI 1 YY    0.019145   0.000000  -0.000000  -0.000000   0.000000
   35  SI 1 ZZ    0.019145  -0.000000  -0.000000  -0.000000   0.000000
   36  SI 1 XY   -0.000000   0.024771  -0.017492   0.006841   0.037474
   37  SI 1 XZ   -0.000000   0.003452  -0.006889  -0.030116  -0.031370
   38  SI 1 YZ   -0.000000   0.018462   0.024758  -0.003547   0.110775
   39  SI 1 XX   -0.024792   0.000000  -0.000000  -0.000000   0.000000
   40  SI 1 YY   -0.024792   0.000000  -0.000000  -0.000000   0.000000
   41  SI 1 ZZ   -0.024792   0.000000  -0.000000  -0.000000   0.000000
   42  SI 1 XY   -0.000000   0.025156  -0.017765   0.006947   0.232514
   43  SI 1 XZ    0.000000   0.003506  -0.006996  -0.030585  -0.194636
   44  SI 1 YZ   -0.000000   0.018750   0.025143  -0.003602   0.687317
   45  SI 1 XXX   0.000000  -0.000888  -0.001191   0.000171  -0.465222
   46  SI 1 YYY  -0.000000  -0.000166   0.000331   0.001449   0.131743
   47  SI 1 ZZZ  -0.000000  -0.001192   0.000842  -0.000329  -0.157381
   48  SI 1 XXY  -0.000000   0.000504  -0.001006  -0.004399   0.060184
   49  SI 1 XXZ  -0.000000   0.003618  -0.002555   0.000999  -0.071896
   50  SI 1 YYX   0.000000   0.002697   0.003616  -0.000518  -0.212527
   51  SI 1 YYZ  -0.000000   0.003618  -0.002555   0.000999  -0.071896
   52  SI 1 ZZX   0.000000   0.002697   0.003616  -0.000518  -0.212527
   53  SI 1 ZZY  -0.000000   0.000504  -0.001006  -0.004399   0.060184
   54  SI 1 XYZ   0.009087  -0.000000  -0.000000   0.000000  -0.000000
   55  SI 1 XXX   0.000000   0.010846   0.014544  -0.002083  -3.035584
   56  SI 1 YYY  -0.000000   0.002028  -0.004047  -0.017692   0.859625
   57  SI 1 ZZZ  -0.000000   0.014552  -0.010276   0.004019  -1.026917
   58  SI 1 XXY  -0.000000   0.001624  -0.003241  -0.014168   0.371332
   59  SI 1 XXZ  -0.000000   0.011653  -0.008229   0.003218  -0.443597
   60  SI 1 YYX   0.000000   0.008685   0.011647  -0.001668  -1.311280
   61  SI 1 YYZ  -0.000000   0.011653  -0.008229   0.003218  -0.443597
   62  SI 1 ZZX   0.000000   0.008685   0.011647  -0.001668  -1.311280
   63  SI 1 ZZY  -0.000000   0.001624  -0.003241  -0.014168   0.371332
   64  SI 1 XYZ   0.015053   0.000000  -0.000000   0.000000   0.000000
   65  SI 1 XXX   0.000000   0.020211   0.027102  -0.003882  -4.117944
   66  SI 1 YYY  -0.000000   0.003779  -0.007541  -0.032968   1.166131
   67  SI 1 ZZZ  -0.000000   0.027117  -0.019149   0.007488  -1.393071
   68  SI 1 XXY  -0.000000   0.002322  -0.004634  -0.020258   0.449061
   69  SI 1 XXZ  -0.000000   0.016662  -0.011766   0.004601  -0.536452
   70  SI 1 YYX   0.000000   0.012419   0.016653  -0.002386  -1.585762
   71  SI 1 YYZ  -0.000000   0.016662  -0.011766   0.004601  -0.536452
   72  SI 1 ZZX   0.000000   0.012419   0.016653  -0.002386  -1.585762
   73  SI 1 ZZY  -0.000000   0.002322  -0.004634  -0.020258   0.449061
   74  SI 1 XYZ   0.006609   0.000000  -0.000000  -0.000000   0.000000
   75  SI 1XXXX  -0.012167  -0.000000  -0.000000   0.000000   0.000000
   76  SI 1YYYY  -0.012167  -0.000000  -0.000000   0.000000   0.000000
   77  SI 1ZZZZ  -0.012167  -0.000000  -0.000000   0.000000   0.000000
   78  SI 1XXXY   0.000000   0.006764  -0.004777   0.001868   0.003675
   79  SI 1XXXZ   0.000000   0.000943  -0.001881  -0.008224  -0.003076
   80  SI 1YYYX   0.000000   0.006764  -0.004777   0.001868   0.003675
   81  SI 1YYYZ  -0.000000   0.005042   0.006761  -0.000969   0.010862
   82  SI 1ZZZX   0.000000   0.000943  -0.001881  -0.008224  -0.003076
   83  SI 1ZZZY  -0.000000   0.005042   0.006761  -0.000969   0.010862
   84  SI 1XXYY  -0.003565  -0.000000  -0.000000   0.000000   0.000000
   85  SI 1XXZZ  -0.003565  -0.000000  -0.000000   0.000000   0.000000
   86  SI 1YYZZ  -0.003565  -0.000000  -0.000000   0.000000   0.000000
   87  SI 1XXYZ  -0.000000   0.003504   0.004698  -0.000673  -0.001054
   88  SI 1YYXZ  -0.000000   0.000655  -0.001307  -0.005715   0.000298
   89  SI 1ZZXY   0.000000   0.004701  -0.003319   0.001298  -0.000356
   90  SI 1XXXX  -0.027483  -0.000000  -0.000000   0.000000   0.000000
   91  SI 1YYYY  -0.027483  -0.000000  -0.000000   0.000000   0.000000
   92  SI 1ZZZZ  -0.027483  -0.000000  -0.000000  -0.000000   0.000000
   93  SI 1XXXY  -0.000000   0.007327  -0.005174   0.002023   0.025575
   94  SI 1XXXZ   0.000000   0.001021  -0.002038  -0.008908  -0.021409
   95  SI 1YYYX  -0.000000   0.007327  -0.005174   0.002023   0.025575
   96  SI 1YYYZ  -0.000000   0.005461   0.007323  -0.001049   0.075601
   97  SI 1ZZZX   0.000000   0.001021  -0.002038  -0.008908  -0.021409
   98  SI 1ZZZY  -0.000000   0.005461   0.007323  -0.001049   0.075601
   99  SI 1XXYY  -0.013346   0.000000  -0.000000   0.000000   0.000000
  100  SI 1XXZZ  -0.013346   0.000000  -0.000000   0.000000   0.000000
  101  SI 1YYZZ  -0.013346   0.000000  -0.000000   0.000000   0.000000
  102  SI 1XXYZ  -0.000000   0.001852   0.002483  -0.000356   0.108635
  103  SI 1YYXZ   0.000000   0.000346  -0.000691  -0.003021  -0.030763
  104  SI 1ZZXY  -0.000000   0.002485  -0.001755   0.000686   0.036750
  105  H  2  S    0.340480   0.653141   0.005266  -0.375251  -0.138906
  106  H  2  S   -0.046776  -0.033614  -0.000271   0.019313  -1.161011
  107  H  2  S   -0.072429  -0.080830  -0.000652   0.046439  -0.819655
  108  H  2  S   -0.032386  -0.039488  -0.000318   0.022687  -0.160627
  109  H  2  S   -0.008129  -0.012599  -0.000102   0.007239  -0.003142
  110  H  2  X   -0.002379  -0.008364   0.003663   0.005876   0.252407
  111  H  2  Y   -0.002379  -0.010640  -0.001134   0.001848   0.171794
  112  H  2  Z   -0.002379  -0.007408  -0.002742   0.007450   0.210837
  113  H  2  X   -0.004806  -0.007725   0.003997   0.005603   0.033197
  114  H  2  Y   -0.004806  -0.010201  -0.001223   0.001220   0.092387
  115  H  2  Z   -0.004806  -0.006685  -0.002972   0.007317   0.063720
  116  H  2  X   -0.002988  -0.001652   0.000079   0.000976   0.001221
  117  H  2  Y   -0.002988  -0.001708  -0.000040   0.000876  -0.016746
  118  H  2  Z   -0.002988  -0.001628  -0.000080   0.001015  -0.008044
  119  H  2  X    0.000274  -0.000292   0.000146   0.000210  -0.001769
  120  H  2  Y    0.000274  -0.000383  -0.000045   0.000050  -0.002061
  121  H  2  Z    0.000274  -0.000254  -0.000109   0.000273  -0.001919
  122  H  2 XX   -0.000134   0.000299  -0.001057  -0.000476  -0.038093
  123  H  2 YY   -0.000134   0.000945   0.000305   0.000668  -0.053994
  124  H  2 ZZ   -0.000134   0.000028   0.000762  -0.000923  -0.046293
  125  H  2 XY   -0.000163   0.000959  -0.000436  -0.000022  -0.022856
  126  H  2 XZ   -0.000163   0.000424  -0.000170  -0.000949  -0.023319
  127  H  2 YZ   -0.000163   0.000800   0.000624  -0.000283  -0.022363
  128  H  2 XX   -0.000195   0.001563  -0.000219  -0.000965  -0.001216
  129  H  2 YY   -0.000195   0.001705   0.000079  -0.000715   0.019767
  130  H  2 ZZ   -0.000195   0.001504   0.000179  -0.001063   0.009604
  131  H  2 XY   -0.001013   0.002507  -0.000450  -0.000881   0.016967
  132  H  2 XZ   -0.001013   0.001941  -0.000168  -0.001862   0.016620
  133  H  2 YZ   -0.001013   0.002339   0.000672  -0.001157   0.017336
  134  H  2 XX    0.000565   0.000306  -0.000035  -0.000187  -0.000755
  135  H  2 YY    0.000565   0.000329   0.000013  -0.000147  -0.004734
  136  H  2 ZZ    0.000565   0.000297   0.000029  -0.000202  -0.002807
  137  H  2 XY    0.000392  -0.000247   0.000040   0.000092  -0.003628
  138  H  2 XZ    0.000392  -0.000197   0.000015   0.000179  -0.003537
  139  H  2 YZ    0.000392  -0.000232  -0.000060   0.000117  -0.003725
  140  H  2 XXX   0.000668   0.000026  -0.000478  -0.000152  -0.012358
  141  H  2 YYY   0.000668   0.000318   0.000137   0.000364  -0.033538
  142  H  2 ZZZ   0.000668  -0.000097   0.000343  -0.000354  -0.023280
  143  H  2 XXY   0.000462  -0.000027   0.000225   0.000233  -0.014996
  144  H  2 XXZ   0.000462  -0.000152   0.000287   0.000017  -0.010099
  145  H  2 YYX   0.000462  -0.000228  -0.000198  -0.000122  -0.004237
  146  H  2 YYZ   0.000462  -0.000265   0.000049  -0.000182  -0.009451
  147  H  2 ZZX   0.000462  -0.000068  -0.000277   0.000156  -0.004551
  148  H  2 ZZY   0.000462   0.000020  -0.000092   0.000311  -0.014661
  149  H  2 XYZ   0.000283  -0.000365  -0.000003   0.000210   0.001374
  150  H  2 XXX   0.000804   0.000101  -0.000007  -0.000060  -0.002911
  151  H  2 YYY   0.000804   0.000106   0.000003  -0.000052  -0.003409
  152  H  2 ZZZ   0.000804   0.000099   0.000006  -0.000063  -0.003168
  153  H  2 XXY   0.000315   0.000049  -0.000003  -0.000020  -0.001574
  154  H  2 XXZ   0.000315   0.000042   0.000001  -0.000033  -0.001531
  155  H  2 YYX   0.000315   0.000047  -0.000007  -0.000023  -0.001440
  156  H  2 YYZ   0.000315   0.000045   0.000008  -0.000027  -0.001486
  157  H  2 ZZX   0.000315   0.000043  -0.000004  -0.000032  -0.001461
  158  H  2 ZZY   0.000315   0.000048   0.000007  -0.000022  -0.001552
  159  H  2 XYZ  -0.000077   0.000017   0.000000  -0.000010  -0.000236
  160  H  2XXXX   0.000594  -0.000123   0.000003   0.000072  -0.000772
  161  H  2YYYY   0.000594  -0.000126  -0.000002   0.000068  -0.010671
  162  H  2ZZZZ   0.000594  -0.000122  -0.000004   0.000074  -0.005877
  163  H  2XXXY   0.000467  -0.000539   0.000077   0.000187  -0.006043
  164  H  2XXXZ   0.000467  -0.000420   0.000018   0.000394  -0.005958
  165  H  2YYYX   0.000467  -0.000528   0.000100   0.000206  -0.006205
  166  H  2YYYZ   0.000467  -0.000493  -0.000137   0.000264  -0.006296
  167  H  2ZZZX   0.000467  -0.000424   0.000048   0.000386  -0.006042
  168  H  2ZZZY   0.000467  -0.000508  -0.000129   0.000237  -0.006217
  169  H  2XXYY   0.000287  -0.000009  -0.000034   0.000045  -0.002741
  170  H  2XXZZ   0.000287  -0.000050  -0.000014  -0.000025  -0.001214
  171  H  2YYZZ   0.000287  -0.000021   0.000047   0.000026  -0.004366
  172  H  2XXYZ   0.000123  -0.000151  -0.000096   0.000059  -0.002024
  173  H  2YYXZ   0.000123  -0.000093   0.000026   0.000162  -0.001947
  174  H  2ZZXY   0.000123  -0.000175   0.000067   0.000019  -0.001984
  175  H  3  S    0.340480   0.039959  -0.494710   0.566657   0.049833
  176  H  3  S   -0.046776  -0.002057   0.025461  -0.029163   0.416516
  177  H  3  S   -0.072429  -0.004945   0.061223  -0.070127   0.294054
  178  H  3  S   -0.032386  -0.002416   0.029909  -0.034259   0.057626
  179  H  3  S   -0.008129  -0.000771   0.009543  -0.010931   0.001127
  180  H  3  X    0.002379   0.003482  -0.004702   0.009147   0.130837
  181  H  3  Y    0.002379   0.001206  -0.009499   0.005120   0.050224
  182  H  3  Z   -0.002379   0.003072   0.005804  -0.008648  -0.046762
  183  H  3  X    0.004806   0.003704  -0.004074   0.008760  -0.017669
  184  H  3  Y    0.004806   0.001228  -0.009295   0.004377   0.041520
  185  H  3  Z   -0.004806   0.003427   0.005273  -0.008216  -0.044062
  186  H  3  X    0.002988   0.000175  -0.001211   0.001480   0.009417
  187  H  3  Y    0.002988   0.000118  -0.001330   0.001380  -0.008550
  188  H  3  Z   -0.002988  -0.000012   0.001238  -0.001468   0.009322
  189  H  3  X   -0.000274   0.000136  -0.000156   0.000329  -0.000489
  190  H  3  Y   -0.000274   0.000046  -0.000347   0.000168  -0.000781
  191  H  3  Z    0.000274   0.000125   0.000200  -0.000309   0.000793
  192  H  3 XX   -0.000134   0.000862   0.000237   0.000796   0.005719
  193  H  3 YY   -0.000134   0.000216  -0.001125  -0.000347   0.021621
  194  H  3 ZZ   -0.000134  -0.000999  -0.000076   0.000655   0.022304
  195  H  3 XY   -0.000163   0.000642  -0.000694   0.000464   0.008542
  196  H  3 XZ    0.000163   0.000066   0.000083  -0.001048  -0.008501
  197  H  3 YZ    0.000163   0.000443   0.000877  -0.000382  -0.007545
  198  H  3 XX   -0.000195   0.000280  -0.001083   0.001474   0.010922
  199  H  3 YY   -0.000195   0.000139  -0.001381   0.001224  -0.010061
  200  H  3 ZZ   -0.000195  -0.000127  -0.001151   0.001443  -0.010962
  201  H  3 XY   -0.001013   0.000771  -0.001865   0.001786  -0.005830
  202  H  3 XZ    0.001013  -0.000021   0.001218  -0.002404   0.005861
  203  H  3 YZ    0.001013   0.000377   0.002058  -0.001698   0.006577
  204  H  3 XX    0.000565   0.000048  -0.000216   0.000285  -0.001717
  205  H  3 YY    0.000565   0.000026  -0.000264   0.000244   0.002261
  206  H  3 ZZ    0.000565  -0.000017  -0.000227   0.000280   0.002432
  207  H  3 XY    0.000392  -0.000070   0.000184  -0.000180   0.001234
  208  H  3 XZ   -0.000392   0.000003  -0.000127   0.000234  -0.001242
  209  H  3 YZ   -0.000392  -0.000032  -0.000201   0.000172  -0.001430
  210  H  3 XXX  -0.000668  -0.000382  -0.000190  -0.000265   0.006151
  211  H  3 YYY  -0.000668  -0.000091   0.000425   0.000252  -0.015029
  212  H  3 ZZZ   0.000668  -0.000458   0.000049   0.000201   0.015939
  213  H  3 XXY  -0.000462   0.000127   0.000116   0.000276  -0.007135
  214  H  3 XXZ   0.000462  -0.000292   0.000027  -0.000140   0.007569
  215  H  3 YYX  -0.000462  -0.000073  -0.000307  -0.000079   0.003624
  216  H  3 YYZ   0.000462  -0.000180   0.000264   0.000060   0.006920
  217  H  3 ZZX  -0.000462  -0.000285  -0.000124   0.000096   0.003652
  218  H  3 ZZY  -0.000462  -0.000197   0.000061   0.000251  -0.006458
  219  H  3 XYZ   0.000283  -0.000022   0.000277  -0.000317  -0.000493
  220  H  3 XXX  -0.000804  -0.000012   0.000073  -0.000092  -0.000796
  221  H  3 YYY  -0.000804  -0.000008   0.000083  -0.000084  -0.001293
  222  H  3 ZZZ   0.000804  -0.000001  -0.000076   0.000091   0.001315
  223  H  3 XXY  -0.000315  -0.000009   0.000038  -0.000036  -0.000600
  224  H  3 XXZ   0.000315  -0.000001  -0.000030   0.000044   0.000604
  225  H  3 YYX  -0.000315  -0.000011   0.000034  -0.000039  -0.000465
  226  H  3 YYZ   0.000315  -0.000005  -0.000037   0.000038   0.000559
  227  H  3 ZZX  -0.000315  -0.000004   0.000029  -0.000045  -0.000463
  228  H  3 ZZY  -0.000315   0.000001   0.000040  -0.000035  -0.000554
  229  H  3 XYZ  -0.000077   0.000001  -0.000013   0.000015   0.000085
  230  H  3XXXX   0.000594  -0.000011   0.000092  -0.000109  -0.004669
  231  H  3YYYY   0.000594  -0.000008   0.000097  -0.000105   0.005229
  232  H  3ZZZZ   0.000594  -0.000004   0.000093  -0.000109   0.005654
  233  H  3XXXY   0.000467  -0.000149   0.000409  -0.000377   0.002024
  234  H  3XXXZ  -0.000467  -0.000009  -0.000273   0.000507  -0.002031
  235  H  3YYYX   0.000467  -0.000160   0.000386  -0.000396   0.002186
  236  H  3YYYZ  -0.000467  -0.000082  -0.000427   0.000377  -0.002369
  237  H  3ZZZX  -0.000467   0.000022  -0.000267   0.000510  -0.002201
  238  H  3ZZZY  -0.000467  -0.000062  -0.000445   0.000361  -0.002376
  239  H  3XXYY   0.000287   0.000044   0.000009  -0.000036  -0.000146
  240  H  3XXZZ   0.000287  -0.000010   0.000056   0.000009  -0.000010
  241  H  3YYZZ   0.000287  -0.000039  -0.000005  -0.000042   0.003141
  242  H  3XXYZ  -0.000123  -0.000067  -0.000156   0.000083  -0.000765
  243  H  3YYXZ  -0.000123  -0.000008  -0.000033   0.000185  -0.000688
  244  H  3ZZXY   0.000123  -0.000101   0.000128  -0.000095   0.000684
  245  H  4  S    0.340480  -0.556545  -0.198018  -0.467421   0.213468
  246  H  4  S   -0.046776   0.028643   0.010191   0.024056   1.784222
  247  H  4  S   -0.072429   0.068875   0.024506   0.057846   1.259633
  248  H  4  S   -0.032386   0.033648   0.011972   0.028260   0.246849
  249  H  4  S   -0.008129   0.010736   0.003820   0.009017   0.004829
  250  H  4  X    0.002379  -0.006713   0.000368  -0.008526   0.354173
  251  H  4  Y   -0.002379   0.010035   0.002340   0.003424  -0.309141
  252  H  4  Z    0.002379  -0.005757  -0.006036  -0.006952   0.312603
  253  H  4  X    0.004806  -0.006132   0.000818  -0.008293   0.075777
  254  H  4  Y   -0.004806   0.009747   0.002129   0.002740  -0.108842
  255  H  4  Z    0.004806  -0.005092  -0.006151  -0.006580   0.106300
  256  H  4  X    0.002988  -0.001397  -0.000429  -0.001245  -0.005640
  257  H  4  Y   -0.002988   0.001480   0.000496   0.001118   0.015677
  258  H  4  Z    0.002988  -0.001373  -0.000588  -0.001206  -0.014905
  259  H  4  X   -0.000274  -0.000232   0.000027  -0.000310  -0.002840
  260  H  4  Y    0.000274   0.000365   0.000081   0.000107   0.003003
  261  H  4  Z   -0.000274  -0.000194  -0.000228  -0.000247  -0.002991
  262  H  4 XX   -0.000134  -0.000137   0.000734  -0.000936   0.065192
  263  H  4 YY   -0.000134  -0.001081  -0.000035   0.000513   0.074075
  264  H  4 ZZ   -0.000134   0.000134  -0.001085  -0.000488   0.073392
  265  H  4 XY    0.000163   0.000909  -0.000337   0.000413  -0.035260
  266  H  4 XZ   -0.000163  -0.000201  -0.000275  -0.000997   0.035301
  267  H  4 YZ    0.000163   0.000751   0.000723   0.000152  -0.034767
  268  H  4 XX   -0.000195  -0.001307  -0.000294  -0.001277  -0.006908
  269  H  4 YY   -0.000195  -0.001513  -0.000462  -0.000960  -0.018630
  270  H  4 ZZ   -0.000195  -0.001247  -0.000691  -0.001179  -0.017729
  271  H  4 XY    0.001013   0.002233   0.000096   0.001505   0.025973
  272  H  4 XZ   -0.001013  -0.001484  -0.000744  -0.002123  -0.025942
  273  H  4 YZ    0.001013   0.002066   0.001218   0.001229   0.026342
  274  H  4 XX    0.000565  -0.000257  -0.000064  -0.000245   0.002825
  275  H  4 YY    0.000565  -0.000290  -0.000091  -0.000194   0.005048
  276  H  4 ZZ    0.000565  -0.000247  -0.000128  -0.000229   0.004877
  277  H  4 XY   -0.000392  -0.000219  -0.000016  -0.000151  -0.005548
  278  H  4 XZ    0.000392   0.000153   0.000073   0.000206   0.005540
  279  H  4 YZ   -0.000392  -0.000204  -0.000115  -0.000127  -0.005646
  280  H  4 XXX  -0.000668  -0.000031  -0.000365   0.000344  -0.027852
  281  H  4 YYY   0.000668  -0.000395   0.000017   0.000310   0.039684
  282  H  4 ZZZ  -0.000668  -0.000154   0.000457   0.000142  -0.038774
  283  H  4 XXY   0.000462  -0.000035  -0.000102   0.000307   0.017114
  284  H  4 XXZ  -0.000462  -0.000130   0.000244  -0.000171  -0.016680
  285  H  4 YYX  -0.000462  -0.000258  -0.000137   0.000143  -0.011104
  286  H  4 YYZ  -0.000462  -0.000295   0.000110   0.000082  -0.016318
  287  H  4 ZZX  -0.000462  -0.000046  -0.000320  -0.000032  -0.011132
  288  H  4 ZZY   0.000462  -0.000082   0.000216   0.000229   0.016780
  289  H  4 XYZ   0.000283   0.000311   0.000111   0.000261  -0.002111
  290  H  4 XXX  -0.000804   0.000085   0.000025   0.000078  -0.004682
  291  H  4 YYY   0.000804  -0.000092  -0.000030  -0.000067   0.004960
  292  H  4 ZZZ  -0.000804   0.000084   0.000038   0.000074  -0.004939
  293  H  4 XXY   0.000315  -0.000044  -0.000009  -0.000029   0.002350
  294  H  4 XXZ  -0.000315   0.000034   0.000017   0.000037  -0.002346
  295  H  4 YYX  -0.000315   0.000041   0.000006   0.000034  -0.002275
  296  H  4 YYZ  -0.000315   0.000039   0.000021   0.000030  -0.002322
  297  H  4 ZZX  -0.000315   0.000035   0.000012   0.000039  -0.002277
  298  H  4 ZZY   0.000315  -0.000042  -0.000018  -0.000027   0.002327
  299  H  4 XYZ  -0.000077  -0.000015  -0.000005  -0.000012   0.000363
  300  H  4XXXX   0.000594   0.000105   0.000034   0.000091   0.005327
  301  H  4YYYY   0.000594   0.000108   0.000037   0.000086   0.010857
  302  H  4ZZZZ   0.000594   0.000104   0.000041   0.000089   0.010432
  303  H  4XXXY  -0.000467  -0.000482  -0.000037  -0.000313  -0.009329
  304  H  4XXXZ   0.000467   0.000324   0.000174   0.000443   0.009322
  305  H  4YYYX  -0.000467  -0.000466  -0.000024  -0.000337  -0.009420
  306  H  4YYYZ  -0.000467  -0.000431  -0.000261  -0.000279  -0.009511
  307  H  4ZZZX   0.000467   0.000328   0.000143   0.000451   0.009406
  308  H  4ZZZY  -0.000467  -0.000451  -0.000243  -0.000262  -0.009504
  309  H  4XXYY   0.000287   0.000001   0.000050   0.000027   0.003766
  310  H  4XXZZ   0.000287   0.000054   0.000004  -0.000017   0.003630
  311  H  4YYZZ   0.000287   0.000013  -0.000030   0.000047   0.005391
  312  H  4XXYZ  -0.000123  -0.000139  -0.000120  -0.000043  -0.003079
  313  H  4YYXZ   0.000123   0.000054   0.000051   0.000173   0.003035
  314  H  4ZZXY  -0.000123  -0.000163   0.000044  -0.000083  -0.003039
  315  H  5  S    0.340480  -0.136556   0.687462   0.276015  -0.124395
  316  H  5  S   -0.046776   0.007028  -0.035381  -0.014205  -1.039728
  317  H  5  S   -0.072429   0.016899  -0.085077  -0.034158  -0.734032
  318  H  5  S   -0.032386   0.008256  -0.041563  -0.016687  -0.143848
  319  H  5  S   -0.008129   0.002634  -0.013261  -0.005324  -0.002814
  320  H  5  X   -0.002379   0.005132  -0.007997  -0.005255   0.232602
  321  H  5  Y    0.002379  -0.001811   0.010705   0.000152  -0.187570
  322  H  5  Z    0.002379   0.001421   0.009098   0.005754  -0.148527
  323  H  5  X   -0.004806   0.005297  -0.007253  -0.005137   0.024911
  324  H  5  Y    0.004806  -0.001682   0.010200  -0.000416  -0.057975
  325  H  5  Z    0.004806   0.001834   0.008451   0.005680  -0.086642
  326  H  5  X   -0.002988   0.000429  -0.001719  -0.000741   0.002556
  327  H  5  Y    0.002988  -0.000347   0.001786   0.000614   0.007481
  328  H  5  Z    0.002988  -0.000267   0.001746   0.000753   0.016183
  329  H  5  X    0.000274   0.000196  -0.000275  -0.000192  -0.001560
  330  H  5  Y   -0.000274  -0.000063   0.000383  -0.000011   0.001723
  331  H  5  Z   -0.000274   0.000065   0.000319   0.000212   0.001865
  332  H  5 XX   -0.000134  -0.001023   0.000086   0.000615  -0.032819
  333  H  5 YY   -0.000134  -0.000080   0.000855  -0.000834  -0.041702
  334  H  5 ZZ   -0.000134   0.000838   0.000398   0.000757  -0.049403
  335  H  5 XY    0.000163   0.000692  -0.000794   0.000029   0.020947
  336  H  5 XZ    0.000163   0.000157  -0.000528  -0.000898   0.020483
  337  H  5 YZ   -0.000163   0.000393   0.000976   0.000053  -0.019949
  338  H  5 XX   -0.000195  -0.000537   0.001596   0.000768  -0.002798
  339  H  5 YY   -0.000195  -0.000331   0.001764   0.000451   0.008924
  340  H  5 ZZ   -0.000195  -0.000130   0.001664   0.000799   0.019087
  341  H  5 XY    0.001013   0.001044  -0.002411  -0.000600  -0.014837
  342  H  5 XZ    0.001013   0.000478  -0.002129  -0.001581  -0.015183
  343  H  5 YZ   -0.001013   0.000104   0.002604   0.000687   0.015583
  344  H  5 XX    0.000565  -0.000098   0.000314   0.000147  -0.000352
  345  H  5 YY    0.000565  -0.000065   0.000341   0.000096  -0.002575
  346  H  5 ZZ    0.000565  -0.000032   0.000325   0.000152  -0.004502
  347  H  5 XY   -0.000392  -0.000098   0.000240   0.000064   0.003155
  348  H  5 XZ   -0.000392  -0.000048   0.000215   0.000150   0.003246
  349  H  5 YZ    0.000392  -0.000004  -0.000257  -0.000071  -0.003351
  350  H  5 XXX   0.000668  -0.000439  -0.000076   0.000232  -0.009343
  351  H  5 YYY  -0.000668   0.000013  -0.000271   0.000423   0.021175
  352  H  5 ZZZ  -0.000668  -0.000401  -0.000065  -0.000296   0.031433
  353  H  5 XXY  -0.000462  -0.000189   0.000008   0.000264   0.009253
  354  H  5 XXZ  -0.000462  -0.000314   0.000070   0.000048   0.014149
  355  H  5 YYX   0.000462  -0.000103  -0.000246   0.000185  -0.003243
  356  H  5 YYZ  -0.000462  -0.000149   0.000204  -0.000205   0.013787
  357  H  5 ZZX   0.000462  -0.000263  -0.000167  -0.000092  -0.002929
  358  H  5 ZZY  -0.000462   0.000135   0.000062   0.000289   0.008577
  359  H  5 XYZ   0.000283   0.000076  -0.000384  -0.000154   0.001230
  360  H  5 XXX   0.000804  -0.000028   0.000105   0.000046  -0.002567
  361  H  5 YYY  -0.000804   0.000021  -0.000110  -0.000036   0.002845
  362  H  5 ZZZ  -0.000804   0.000015  -0.000107  -0.000047   0.003086
  363  H  5 XXY  -0.000315   0.000014  -0.000050  -0.000013   0.001376
  364  H  5 XXZ  -0.000315   0.000007  -0.000046  -0.000026   0.001420
  365  H  5 YYX   0.000315  -0.000017   0.000047   0.000018  -0.001300
  366  H  5 YYZ  -0.000315   0.000002  -0.000050  -0.000019   0.001395
  367  H  5 ZZX   0.000315  -0.000012   0.000045   0.000026  -0.001279
  368  H  5 ZZY  -0.000315   0.000005  -0.000051  -0.000014   0.001330
  369  H  5 XYZ  -0.000077  -0.000004   0.000018   0.000007  -0.000211
  370  H  5XXXX   0.000594   0.000029  -0.000129  -0.000054   0.000114
  371  H  5YYYY   0.000594   0.000026  -0.000132  -0.000049  -0.005415
  372  H  5ZZZZ   0.000594   0.000022  -0.000130  -0.000055  -0.010209
  373  H  5XXXY  -0.000467  -0.000206   0.000523   0.000123   0.005310
  374  H  5XXXZ  -0.000467  -0.000087   0.000464   0.000330   0.005395
  375  H  5YYYX  -0.000467  -0.000222   0.000510   0.000147   0.005401
  376  H  5YYYZ   0.000467  -0.000020  -0.000551  -0.000165  -0.005584
  377  H  5ZZZX  -0.000467  -0.000118   0.000459   0.000327   0.005565
  378  H  5ZZZY   0.000467  -0.000005  -0.000559  -0.000139  -0.005663
  379  H  5XXYY   0.000287  -0.000035  -0.000026  -0.000037  -0.000879
  380  H  5XXZZ   0.000287   0.000005  -0.000046   0.000034  -0.002406
  381  H  5YYZZ   0.000287   0.000047  -0.000012  -0.000030  -0.004166
  382  H  5XXYZ   0.000123  -0.000055  -0.000179  -0.000020  -0.001819
  383  H  5YYXZ  -0.000123  -0.000030   0.000110   0.000150   0.001776
  384  H  5ZZXY  -0.000123  -0.000112   0.000151   0.000007   0.001739

                      6          7          8          9         10
                    0.1098     0.1098     0.3248    51.0610    50.7284
                     A          A          A          A          A   
    1  SI 1  S    0.000000  -0.000000   8.857934  16.432773  -0.000000
    2  SI 1  S   -0.000000   0.000000  -0.658598  -1.219107   0.000000
    3  SI 1  S   -0.000000   0.000000  -0.428144  -1.211094   0.000000
    4  SI 1  S    0.000000   0.000000  11.370706   3.449432  -0.000000
    5  SI 1  S    0.000000  -0.000000 -11.241262   5.049838  -0.000000
    6  SI 1  X    3.933797  -2.725587  -0.000000   0.000000  -1.395516
    7  SI 1  Y   10.901322   3.507546   0.000000  -0.000000  -0.906856
    8  SI 1  Z   -2.502949  10.993026   0.000000   0.000000   0.390225
    9  SI 1  X    0.183954  -0.127455  -0.000000  -0.000000   0.153393
   10  SI 1  Y    0.509773   0.164022   0.000000   0.000000   0.099680
   11  SI 1  Z   -0.117044   0.514062   0.000000  -0.000000  -0.042893
   12  SI 1  X   -0.922538   0.639193  -0.000000  -0.000000   1.681018
   13  SI 1  Y   -2.556534  -0.822575   0.000000   0.000000   1.092385
   14  SI 1  Z    0.586981  -2.578040   0.000000  -0.000000  -0.470060
   15  SI 1  X   -0.816300   0.565585   0.000000   0.000000  -1.046938
   16  SI 1  Y   -2.262127  -0.727849  -0.000000  -0.000000  -0.680338
   17  SI 1  Z    0.519385  -2.281157  -0.000000   0.000000   0.292753
   18  SI 1  X    2.027970  -1.405107   0.000000   0.000000  -6.781651
   19  SI 1  Y    5.619902   1.808227   0.000000  -0.000000  -4.406957
   20  SI 1  Z   -1.290332   5.667178   0.000000   0.000000   1.896340
   21  SI 1 XX    0.000000  -0.000000   0.062449   0.071605  -0.000000
   22  SI 1 YY    0.000000  -0.000000   0.062449   0.071605  -0.000000
   23  SI 1 ZZ    0.000000  -0.000000   0.062449   0.071605  -0.000000
   24  SI 1 XY    0.001660  -0.007289   0.000000   0.000000   0.012190
   25  SI 1 XZ   -0.007228  -0.002326   0.000000  -0.000000  -0.028329
   26  SI 1 YZ   -0.002608   0.001807   0.000000   0.000000  -0.043594
   27  SI 1 XX   -0.000000   0.000000  -1.151439  -2.389603   0.000000
   28  SI 1 YY   -0.000000   0.000000  -1.151439  -2.389603   0.000000
   29  SI 1 ZZ   -0.000000   0.000000  -1.151439  -2.389603   0.000000
   30  SI 1 XY    0.001797  -0.007891   0.000000   0.000000   0.083974
   31  SI 1 XZ   -0.007826  -0.002518   0.000000  -0.000000  -0.195149
   32  SI 1 YZ   -0.002824   0.001957   0.000000   0.000000  -0.300306
   33  SI 1 XX   -0.000000   0.000000  -2.316475  -5.141117   0.000000
   34  SI 1 YY   -0.000000   0.000000  -2.316475  -5.141117   0.000000
   35  SI 1 ZZ   -0.000000   0.000000  -2.316475  -5.141117   0.000000
   36  SI 1 XY   -0.025559   0.112258   0.000000  -0.000000  -0.887625
   37  SI 1 XZ    0.111321   0.035818   0.000000   0.000000   2.062776
   38  SI 1 YZ    0.040171  -0.027833  -0.000000  -0.000000   3.174305
   39  SI 1 XX   -0.000000   0.000000   0.624890  -3.067969   0.000000
   40  SI 1 YY   -0.000000   0.000000   0.624890  -3.067969   0.000000
   41  SI 1 ZZ   -0.000000   0.000000   0.624890  -3.067969   0.000000
   42  SI 1 XY   -0.158587   0.696519   0.000000   0.000000   0.038346
   43  SI 1 XZ    0.690708   0.222238   0.000000  -0.000000  -0.089114
   44  SI 1 YZ    0.249246  -0.172693  -0.000000   0.000000  -0.137134
   45  SI 1 XXX  -0.168706   0.116890  -0.000000  -0.000000   0.683638
   46  SI 1 YYY  -0.467517  -0.150426   0.000000   0.000000   0.444252
   47  SI 1 ZZZ   0.107342  -0.471450   0.000000  -0.000000  -0.191164
   48  SI 1 XXY  -0.213575  -0.068719   0.000000   0.000000   0.152897
   49  SI 1 XXZ   0.049037  -0.215372   0.000000  -0.000000  -0.065793
   50  SI 1 YYX  -0.077070   0.053399  -0.000000  -0.000000   0.235286
   51  SI 1 YYZ   0.049037  -0.215372   0.000000  -0.000000  -0.065793
   52  SI 1 ZZX  -0.077070   0.053399  -0.000000  -0.000000   0.235286
   53  SI 1 ZZY  -0.213575  -0.068719   0.000000   0.000000   0.152897
   54  SI 1 XYZ   0.000000  -0.000000  -0.015440   0.007326  -0.000000
   55  SI 1 XXX  -1.100811   0.762712  -0.000000  -0.000000   2.986839
   56  SI 1 YYY  -3.050562  -0.981531   0.000000   0.000000   1.940954
   57  SI 1 ZZZ   0.700410  -3.076224   0.000000  -0.000000  -0.835204
   58  SI 1 XXY  -1.317750  -0.423991   0.000000   0.000000   1.226900
   59  SI 1 XXZ   0.302556  -1.328835   0.000000  -0.000000  -0.527942
   60  SI 1 YYX  -0.475517   0.329468  -0.000000  -0.000000   1.888017
   61  SI 1 YYZ   0.302556  -1.328835   0.000000  -0.000000  -0.527942
   62  SI 1 ZZX  -0.475517   0.329468  -0.000000  -0.000000   1.888017
   63  SI 1 ZZY  -1.317750  -0.423991   0.000000   0.000000   1.226900
   64  SI 1 XYZ   0.000000   0.000000  -0.002808  -1.193099   0.000000
   65  SI 1 XXX  -1.493313   1.034663  -0.000000  -0.000000   2.570936
   66  SI 1 YYY  -4.138262  -1.331503   0.000000   0.000000   1.670685
   67  SI 1 ZZZ   0.950147  -4.173074   0.000000  -0.000000  -0.718906
   68  SI 1 XXY  -1.593586  -0.512743   0.000000   0.000000   0.573318
   69  SI 1 XXZ   0.365888  -1.606992   0.000000  -0.000000  -0.246702
   70  SI 1 YYX  -0.575054   0.398434  -0.000000  -0.000000   0.882251
   71  SI 1 YYZ   0.365888  -1.606992   0.000000  -0.000000  -0.246702
   72  SI 1 ZZX  -0.575054   0.398434  -0.000000  -0.000000   0.882251
   73  SI 1 ZZY  -1.593586  -0.512743   0.000000   0.000000   0.573318
   74  SI 1 XYZ   0.000000   0.000000   0.615387   0.218014  -0.000000
   75  SI 1XXXX  -0.000000   0.000000  -0.089885  -0.372578   0.000000
   76  SI 1YYYY  -0.000000   0.000000  -0.089885  -0.372578   0.000000
   77  SI 1ZZZZ  -0.000000   0.000000  -0.089885  -0.372578   0.000000
   78  SI 1XXXY  -0.002506   0.011008   0.000000   0.000000   0.131100
   79  SI 1XXXZ   0.010916   0.003512   0.000000  -0.000000  -0.304667
   80  SI 1YYYX  -0.002506   0.011008   0.000000   0.000000   0.131100
   81  SI 1YYYZ   0.003939  -0.002729   0.000000   0.000000  -0.468837
   82  SI 1ZZZX   0.010916   0.003512   0.000000  -0.000000  -0.304667
   83  SI 1ZZZY   0.003939  -0.002729   0.000000   0.000000  -0.468837
   84  SI 1XXYY  -0.000000   0.000000  -0.058293  -0.268368   0.000000
   85  SI 1XXZZ  -0.000000   0.000000  -0.058293  -0.268368   0.000000
   86  SI 1YYZZ  -0.000000   0.000000  -0.058293  -0.268368   0.000000
   87  SI 1XXYZ  -0.000382   0.000265   0.000000   0.000000  -0.214514
   88  SI 1YYXZ  -0.001059  -0.000341   0.000000  -0.000000  -0.139399
   89  SI 1ZZXY   0.000243  -0.001068   0.000000   0.000000   0.059984
   90  SI 1XXXX  -0.000000   0.000000   0.036905  -0.020465   0.000000
   91  SI 1YYYY  -0.000000   0.000000   0.036905  -0.020465  -0.000000
   92  SI 1ZZZZ  -0.000000   0.000000   0.036905  -0.020465   0.000000
   93  SI 1XXXY  -0.017444   0.076613   0.000000   0.000000   0.228714
   94  SI 1XXXZ   0.075974   0.024445   0.000000  -0.000000  -0.531514
   95  SI 1YYYX  -0.017444   0.076613   0.000000   0.000000   0.228714
   96  SI 1YYYZ   0.027415  -0.018995   0.000000   0.000000  -0.817921
   97  SI 1ZZZX   0.075974   0.024445   0.000000  -0.000000  -0.531514
   98  SI 1ZZZY   0.027415  -0.018995   0.000000   0.000000  -0.817921
   99  SI 1XXYY   0.000000   0.000000   0.077668  -0.340642   0.000000
  100  SI 1XXZZ   0.000000   0.000000   0.077668  -0.340642   0.000000
  101  SI 1YYZZ   0.000000   0.000000   0.077668  -0.340642   0.000000
  102  SI 1XXYZ   0.039395  -0.027295  -0.000000   0.000000  -0.154555
  103  SI 1YYXZ   0.109171   0.035126   0.000000  -0.000000  -0.100435
  104  SI 1ZZXY  -0.025066   0.110089   0.000000   0.000000   0.043218
  105  H  2  S   -0.149665  -0.142903  -0.677570 110.522521-122.531149
  106  H  2  S   -1.250939  -1.194420   2.496098 -17.889006  19.046706
  107  H  2  S   -0.883144  -0.843242  -4.216191 -47.028468  52.829067
  108  H  2  S   -0.173069  -0.165250  -1.115415 -21.859588  27.186288
  109  H  2  S   -0.003386  -0.003233   1.116232 -44.982389  48.324418
  110  H  2  X    0.227051   0.179255   0.368805   0.183369  -0.154645
  111  H  2  Y    0.267402   0.215353   0.368805   0.183369  -0.091707
  112  H  2  Z    0.189774   0.258704   0.368805   0.183369   0.075355
  113  H  2  X    0.068741   0.093197  -0.146708  -0.984331   1.174733
  114  H  2  Y    0.039114   0.066692  -0.146708  -0.984331   1.077062
  115  H  2  Z    0.096111   0.034862  -0.146708  -0.984331   0.817806
  116  H  2  X   -0.008694  -0.016667   0.036572   0.341567  -0.231528
  117  H  2  Y    0.000300  -0.008622   0.036572   0.341567  -0.255806
  118  H  2  Z   -0.017002   0.001040   0.036572   0.341567  -0.320248
  119  H  2  X   -0.002068  -0.002111  -0.001811  -0.040472  -0.007162
  120  H  2  Y   -0.001922  -0.001980  -0.001811  -0.040472   0.006827
  121  H  2  Z   -0.002203  -0.001823  -0.001811  -0.040472   0.043959
  122  H  2 XX   -0.049901  -0.055051   0.563872  -2.388857   2.046653
  123  H  2 YY   -0.041942  -0.047931   0.563872  -2.388857   2.029132
  124  H  2 ZZ   -0.057255  -0.039379   0.563872  -2.388857   1.982626
  125  H  2 XY   -0.025070  -0.023018  -0.013832   0.045912  -0.097099
  126  H  2 XZ   -0.024149  -0.023532  -0.013832   0.045912  -0.101163
  127  H  2 YZ   -0.024628  -0.023961  -0.013832   0.045912  -0.102694
  128  H  2 XX    0.010378   0.019680   0.426047  -4.355598   3.922283
  129  H  2 YY   -0.000125   0.010284   0.426047  -4.355598   3.965210
  130  H  2 ZZ    0.020082  -0.001000   0.426047  -4.355598   4.079154
  131  H  2 XY    0.017949   0.017826   0.030337   0.336808  -0.163466
  132  H  2 XZ    0.018638   0.017441   0.030337   0.336808  -0.132903
  133  H  2 YZ    0.018280   0.017121   0.030337   0.336808  -0.121388
  134  H  2 XX   -0.003030  -0.004746  -0.084038   5.323510  -5.749255
  135  H  2 YY   -0.001039  -0.002964  -0.084038   5.323510  -5.757096
  136  H  2 ZZ   -0.004870  -0.000825  -0.084038   5.323510  -5.777910
  137  H  2 XY   -0.003821  -0.003830  -0.006409  -0.064253   0.030280
  138  H  2 XZ   -0.004003  -0.003729  -0.006409  -0.064253   0.024705
  139  H  2 YZ   -0.003908  -0.003644  -0.006409  -0.064253   0.022604
  140  H  2 XXX  -0.025114  -0.033842   0.047208   0.265950  -0.369109
  141  H  2 YYY  -0.014512  -0.024358   0.047208   0.265950  -0.326168
  142  H  2 ZZZ  -0.034908  -0.012968   0.047208   0.265950  -0.212186
  143  H  2 XXY  -0.005474  -0.009938   0.019506   0.104742  -0.150402
  144  H  2 XXZ  -0.015210  -0.004501   0.019506   0.104742  -0.099010
  145  H  2 YYX  -0.010859  -0.014755   0.019506   0.104742  -0.169148
  146  H  2 YYZ  -0.015535  -0.004791   0.019506   0.104742  -0.098394
  147  H  2 ZZX  -0.010235  -0.015104   0.019506   0.104742  -0.167515
  148  H  2 ZZY  -0.005174  -0.010577   0.019506   0.104742  -0.148154
  149  H  2 XYZ   0.001480   0.001413  -0.001735  -0.023738  -0.002460
  150  H  2 XXX  -0.003414  -0.003491  -0.000260  -0.049745  -0.023899
  151  H  2 YYY  -0.003165  -0.003269  -0.000260  -0.049745  -0.001807
  152  H  2 ZZZ  -0.003644  -0.003001  -0.000260  -0.049745   0.056833
  153  H  2 XXY  -0.001579  -0.001532   0.000154  -0.019210  -0.000210
  154  H  2 XXZ  -0.001666  -0.001483   0.000154  -0.019210   0.025289
  155  H  2 YYX  -0.001647  -0.001593   0.000154  -0.019210  -0.010407
  156  H  2 YYZ  -0.001689  -0.001503   0.000154  -0.019210   0.024698
  157  H  2 ZZX  -0.001604  -0.001616   0.000154  -0.019210  -0.011975
  158  H  2 ZZY  -0.001559  -0.001576   0.000154  -0.019210  -0.002369
  159  H  2 XYZ  -0.000254  -0.000243   0.000243   0.004813  -0.002447
  160  H  2XXXX  -0.006346  -0.010669  -0.143648   3.901572  -4.008628
  161  H  2YYYY  -0.001391  -0.006236  -0.143648   3.901572  -4.028694
  162  H  2ZZZZ  -0.010923  -0.000913  -0.143648   3.901572  -4.081956
  163  H  2XXXY  -0.006520  -0.006470  -0.010654  -0.114703   0.061508
  164  H  2XXXZ  -0.006689  -0.006376  -0.010654  -0.114703   0.054431
  165  H  2YYYX  -0.006438  -0.006397  -0.010654  -0.114703   0.060352
  166  H  2YYYZ  -0.006520  -0.006224  -0.010654  -0.114703   0.050610
  167  H  2ZZZX  -0.006764  -0.006215  -0.010654  -0.114703   0.050208
  168  H  2ZZZY  -0.006676  -0.006136  -0.010654  -0.114703   0.047542
  169  H  2XXYY  -0.001491  -0.004454  -0.082446   2.289623  -2.344159
  170  H  2XXZZ  -0.004526  -0.002759  -0.082446   2.289623  -2.364003
  171  H  2YYZZ  -0.002948  -0.001348  -0.082446   2.289623  -2.371479
  172  H  2XXYZ  -0.002138  -0.002006  -0.003437  -0.051245   0.025080
  173  H  2YYXZ  -0.002177  -0.002040  -0.003437  -0.051245   0.025965
  174  H  2ZZXY  -0.002102  -0.002082  -0.003437  -0.051245   0.028314
  175  H  3  S    0.210417  -0.123923  -0.677570 110.522521 172.542775
  176  H  3  S    1.758723  -1.035781   2.496098 -17.889006 -26.820702
  177  H  3  S    1.241631  -0.731245  -4.216191 -47.028468 -74.391483
  178  H  3  S    0.243322  -0.143302  -1.115415 -21.859588 -38.282491
  179  H  3  S    0.004760  -0.002803   1.116232 -44.982389 -68.048242
  180  H  3  X    0.309968  -0.184920  -0.368805  -0.183369  -0.144403
  181  H  3  Y    0.350319  -0.148822  -0.368805  -0.183369  -0.081464
  182  H  3  Z   -0.301682   0.232799   0.368805   0.183369   0.014923
  183  H  3  X    0.103435  -0.059178   0.146708   0.984331   1.540359
  184  H  3  Y    0.073807  -0.085683   0.146708   0.984331   1.442688
  185  H  3  Z   -0.109519   0.024024  -0.146708  -0.984331  -1.339425
  186  H  3  X   -0.014284   0.007884  -0.036572  -0.341567  -0.354325
  187  H  3  Y   -0.005290   0.015930  -0.036572  -0.341567  -0.378603
  188  H  3  Z    0.016130   0.002787   0.036572   0.341567   0.404271
  189  H  3  X   -0.002941   0.001724   0.001811   0.040472   0.006220
  190  H  3  Y   -0.002795   0.001854   0.001811   0.040472   0.020209
  191  H  3  Z    0.002971  -0.001550  -0.001811  -0.040472  -0.034999
  192  H  3 XX    0.071982  -0.041926   0.563872  -2.388857  -2.861581
  193  H  3 YY    0.064022  -0.049046   0.563872  -2.388857  -2.844060
  194  H  3 ZZ    0.073616  -0.032481   0.563872  -2.388857  -2.825537
  195  H  3 XY    0.034833  -0.019860  -0.013832   0.045912   0.139674
  196  H  3 XZ   -0.034256   0.020857   0.013832  -0.045912  -0.141293
  197  H  3 YZ   -0.034735   0.020428   0.013832  -0.045912  -0.142824
  198  H  3 XX   -0.016998   0.009395   0.426047  -4.355598  -5.573216
  199  H  3 YY   -0.006495   0.018791   0.426047  -4.355598  -5.616143
  200  H  3 ZZ   -0.019155  -0.003068   0.426047  -4.355598  -5.661527
  201  H  3 XY   -0.025544   0.015533   0.030337   0.336808   0.208042
  202  H  3 XZ    0.025976  -0.014788  -0.030337  -0.336808  -0.195869
  203  H  3 YZ    0.025618  -0.015108  -0.030337  -0.336808  -0.184355
  204  H  3 XX    0.004717  -0.002661  -0.084038   5.323510   8.104978
  205  H  3 YY    0.002725  -0.004443  -0.084038   5.323510   8.112820
  206  H  3 ZZ    0.005126  -0.000298  -0.084038   5.323510   8.121110
  207  H  3 XY    0.005454  -0.003341  -0.006409  -0.064253  -0.038600
  208  H  3 XZ   -0.005568   0.003145   0.006409   0.064253   0.036379
  209  H  3 YZ   -0.005473   0.003229   0.006409   0.064253   0.034279
  210  H  3 XXX  -0.037738   0.021603  -0.047208  -0.265950  -0.469709
  211  H  3 YYY  -0.027137   0.031088  -0.047208  -0.265950  -0.426768
  212  H  3 ZZZ   0.039915  -0.009024   0.047208   0.265950   0.381369
  213  H  3 XXY  -0.010836   0.013612  -0.019506  -0.104742  -0.196406
  214  H  3 XXZ   0.016936  -0.003079   0.019506   0.104742   0.175937
  215  H  3 YYX  -0.016221   0.008794  -0.019506  -0.104742  -0.215153
  216  H  3 YYZ   0.017260  -0.002789   0.019506   0.104742   0.175322
  217  H  3 ZZX  -0.015830   0.009469  -0.019506  -0.104742  -0.214502
  218  H  3 ZZY  -0.010769   0.013997  -0.019506  -0.104742  -0.195141
  219  H  3 XYZ  -0.002081   0.001226  -0.001735  -0.023738   0.003464
  220  H  3 XXX  -0.004857   0.002846   0.000260   0.049745  -0.007903
  221  H  3 YYY  -0.004608   0.003069   0.000260   0.049745   0.014189
  222  H  3 ZZZ   0.004908  -0.002550  -0.000260  -0.049745  -0.037546
  223  H  3 XXY  -0.002244   0.001388  -0.000154   0.019210   0.006292
  224  H  3 XXZ   0.002299  -0.001293   0.000154  -0.019210  -0.016448
  225  H  3 YYX  -0.002311   0.001327  -0.000154   0.019210  -0.003905
  226  H  3 YYZ   0.002321  -0.001273   0.000154  -0.019210  -0.015857
  227  H  3 ZZX  -0.002285   0.001373  -0.000154   0.019210  -0.004530
  228  H  3 ZZY  -0.002239   0.001414  -0.000154   0.019210   0.005077
  229  H  3 XYZ   0.000358  -0.000211   0.000243   0.004813   0.003446
  230  H  3XXXX   0.010058  -0.005633  -0.143648   3.901572   5.668157
  231  H  3YYYY   0.005103  -0.010065  -0.143648   3.901572   5.688222
  232  H  3ZZZZ   0.011075   0.000246  -0.143648   3.901572   5.709437
  233  H  3XXXY   0.009261  -0.005569  -0.010654  -0.114703  -0.080138
  234  H  3XXXZ  -0.009367   0.005387   0.010654   0.114703   0.077320
  235  H  3YYYX   0.009180  -0.005642  -0.010654  -0.114703  -0.078983
  236  H  3YYYZ  -0.009198   0.005538   0.010654   0.114703   0.073498
  237  H  3ZZZX  -0.009384   0.005290   0.010654   0.114703   0.074943
  238  H  3ZZZY  -0.009296   0.005368   0.010654   0.114703   0.072277
  239  H  3XXYY   0.003460  -0.004193  -0.082446   2.289623   3.315315
  240  H  3XXZZ   0.005361  -0.000910  -0.082446   2.289623   3.323218
  241  H  3YYZZ   0.003784  -0.002321  -0.082446   2.289623   3.330694
  242  H  3XXYZ  -0.002997   0.001767   0.003437   0.051245   0.036349
  243  H  3YYXZ  -0.003036   0.001733   0.003437   0.051245   0.037233
  244  H  3ZZXY   0.002989  -0.001813  -0.003437  -0.051245  -0.038169
  245  H  4  S   -0.114935   0.057767  -0.677570 110.522519   6.307742
  246  H  4  S   -0.960657   0.482830   2.496098 -17.889006  -0.980499
  247  H  4  S   -0.678209   0.340870  -4.216191 -47.028468  -2.719571
  248  H  4  S   -0.132908   0.066800  -1.115415 -21.859588  -1.399514
  249  H  4  S   -0.002600   0.001307   1.116232 -44.982388  -2.487677
  250  H  4  X   -0.134087   0.063058  -0.368805  -0.183369  -0.178449
  251  H  4  Y    0.220001  -0.058529   0.368805   0.183369  -0.118094
  252  H  4  Z   -0.171364   0.142506  -0.368805  -0.183369   0.051552
  253  H  4  X   -0.082363   0.044578   0.146708   0.984331   0.325046
  254  H  4  Y    0.019281  -0.047903  -0.146708  -0.984331   0.135144
  255  H  4  Z   -0.054992  -0.013756   0.146708   0.984331  -0.031882
  256  H  4  X    0.015653  -0.008833  -0.036572  -0.341567   0.053845
  257  H  4  Y    0.003495   0.009843   0.036572   0.341567   0.060543
  258  H  4  Z    0.007345   0.008874  -0.036572  -0.341567  -0.034875
  259  H  4  X    0.001734  -0.000887   0.001811   0.040472  -0.038262
  260  H  4  Y   -0.001423   0.000904  -0.001811  -0.040472  -0.027648
  261  H  4  Z    0.001599  -0.000600   0.001811   0.040472   0.012859
  262  H  4 XX   -0.046267   0.024109   0.563872  -2.388857  -0.152819
  263  H  4 YY   -0.029319   0.025002   0.563872  -2.388857  -0.070268
  264  H  4 ZZ   -0.038913   0.008437   0.563872  -2.388857  -0.088792
[...]
             55  SI 1 XXX     0.02513     0.07272
             56  SI 1 YYY     0.02513     0.07272
             57  SI 1 ZZZ     0.02513     0.07272
             58  SI 1 XXY     0.01816     0.05560
             59  SI 1 XXZ     0.01816     0.05560
             60  SI 1 YYX     0.01816     0.05560
             61  SI 1 YYZ     0.01816     0.05560
             62  SI 1 ZZX     0.01816     0.05560
             63  SI 1 ZZY     0.01816     0.05560
             64  SI 1 XYZ     0.00630     0.00621
             65  SI 1 XXX     0.04308     0.06687
             66  SI 1 YYY     0.04308     0.06687
             67  SI 1 ZZZ     0.04308     0.06687
             68  SI 1 XXY     0.02465     0.05419
             69  SI 1 XXZ     0.02465     0.05419
             70  SI 1 YYX     0.02465     0.05419
             71  SI 1 YYZ     0.02465     0.05419
             72  SI 1 ZZX     0.02465     0.05419
             73  SI 1 ZZY     0.02465     0.05419
             74  SI 1 XYZ     0.00286     0.00724
             75  SI 1XXXX    -0.01214     0.02902
             76  SI 1YYYY    -0.01214     0.02902
             77  SI 1ZZZZ    -0.01214     0.02902
             78  SI 1XXXY     0.00427     0.00794
             79  SI 1XXXZ     0.00427     0.00794
             80  SI 1YYYX     0.00427     0.00794
             81  SI 1YYYZ     0.00427     0.00794
             82  SI 1ZZZX     0.00427     0.00794
             83  SI 1ZZZY     0.00427     0.00794
             84  SI 1XXYY    -0.00425     0.03448
             85  SI 1XXZZ    -0.00425     0.03448
             86  SI 1YYZZ    -0.00425     0.03448
             87  SI 1XXYZ     0.00298     0.00505
             88  SI 1YYXZ     0.00298     0.00505
             89  SI 1ZZXY     0.00298     0.00505
             90  SI 1XXXX    -0.02753     0.02430
             91  SI 1YYYY    -0.02753     0.02430
             92  SI 1ZZZZ    -0.02753     0.02430
             93  SI 1XXXY     0.00651     0.01865
             94  SI 1XXXZ     0.00651     0.01865
             95  SI 1YYYX     0.00651     0.01865
             96  SI 1YYYZ     0.00651     0.01865
             97  SI 1ZZZX     0.00651     0.01865
             98  SI 1ZZZY     0.00651     0.01865
             99  SI 1XXYY    -0.01656     0.03648
            100  SI 1XXZZ    -0.01656     0.03648
            101  SI 1YYZZ    -0.01656     0.03648
            102  SI 1XXYZ     0.00241     0.01771
            103  SI 1YYXZ     0.00241     0.01771
            104  SI 1ZZXY     0.00241     0.01771
            105  H  2  S      1.53552     0.14905
            106  H  2  S     -0.09475     0.07345
            107  H  2  S     -0.21937     0.11948
            108  H  2  S     -0.10040     0.11792
            109  H  2  S     -0.02351     0.10680
            110  H  2  X      0.00311     0.00958
            111  H  2  Y      0.00311     0.00958
            112  H  2  Z      0.00311     0.00958
            113  H  2  X      0.00319     0.00198
            114  H  2  Y      0.00319     0.00198
            115  H  2  Z      0.00319     0.00198
            116  H  2  X      0.00044     0.00028
            117  H  2  Y      0.00044     0.00028
            118  H  2  Z      0.00044     0.00028
            119  H  2  X      0.00001     0.00004
            120  H  2  Y      0.00001     0.00004
            121  H  2  Z      0.00001     0.00004
            122  H  2 XX      0.00058     0.04874
            123  H  2 YY      0.00058     0.04874
            124  H  2 ZZ      0.00058     0.04874
            125  H  2 XY      0.00011     0.00199
            126  H  2 XZ      0.00011     0.00199
            127  H  2 YZ      0.00011     0.00199
            128  H  2 XX      0.00185     0.03272
            129  H  2 YY      0.00185     0.03272
            130  H  2 ZZ      0.00185     0.03272
            131  H  2 XY      0.00010     0.00016
            132  H  2 XZ      0.00010     0.00016
            133  H  2 YZ      0.00010     0.00016
            134  H  2 XX      0.00050     0.02536
            135  H  2 YY      0.00050     0.02536
            136  H  2 ZZ      0.00050     0.02536
            137  H  2 XY      0.00000     0.00000
            138  H  2 XZ      0.00000     0.00000
            139  H  2 YZ      0.00000     0.00000
            140  H  2 XXX    -0.00018     0.00132
            141  H  2 YYY    -0.00018     0.00132
            142  H  2 ZZZ    -0.00018     0.00132
            143  H  2 XXY    -0.00006     0.00090
            144  H  2 XXZ    -0.00006     0.00090
            145  H  2 YYX    -0.00006     0.00090
            146  H  2 YYZ    -0.00006     0.00090
            147  H  2 ZZX    -0.00006     0.00090
            148  H  2 ZZY    -0.00006     0.00090
            149  H  2 XYZ     0.00001     0.00004
            150  H  2 XXX    -0.00006     0.00018
            151  H  2 YYY    -0.00006     0.00018
            152  H  2 ZZZ    -0.00006     0.00018
            153  H  2 XXY    -0.00002     0.00009
            154  H  2 XXZ    -0.00002     0.00009
            155  H  2 YYX    -0.00002     0.00009
            156  H  2 YYZ    -0.00002     0.00009
            157  H  2 ZZX    -0.00002     0.00009
            158  H  2 ZZY    -0.00002     0.00009
            159  H  2 XYZ     0.00000     0.00000
            160  H  2XXXX     0.00013     0.01548
            161  H  2YYYY     0.00013     0.01548
            162  H  2ZZZZ     0.00013     0.01548
            163  H  2XXXY    -0.00001     0.00008
            164  H  2XXXZ    -0.00001     0.00008
            165  H  2YYYX    -0.00001     0.00008
            166  H  2YYYZ    -0.00001     0.00008
            167  H  2ZZZX    -0.00001     0.00008
            168  H  2ZZZY    -0.00001     0.00008
            169  H  2XXYY     0.00011     0.01962
            170  H  2XXZZ     0.00011     0.01962
            171  H  2YYZZ     0.00011     0.01962
            172  H  2XXYZ    -0.00000     0.00005
            173  H  2YYXZ    -0.00000     0.00005
            174  H  2ZZXY    -0.00000     0.00005
            175  H  3  S      1.53552     0.14905
            176  H  3  S     -0.09475     0.07345
            177  H  3  S     -0.21937     0.11948
            178  H  3  S     -0.10040     0.11792
            179  H  3  S     -0.02351     0.10680
            180  H  3  X      0.00311     0.00958
            181  H  3  Y      0.00311     0.00958
            182  H  3  Z      0.00311     0.00958
            183  H  3  X      0.00319     0.00198
            184  H  3  Y      0.00319     0.00198
            185  H  3  Z      0.00319     0.00198
            186  H  3  X      0.00044     0.00028
            187  H  3  Y      0.00044     0.00028
            188  H  3  Z      0.00044     0.00028
            189  H  3  X      0.00001     0.00004
            190  H  3  Y      0.00001     0.00004
            191  H  3  Z      0.00001     0.00004
            192  H  3 XX      0.00058     0.04874
            193  H  3 YY      0.00058     0.04874
            194  H  3 ZZ      0.00058     0.04874
            195  H  3 XY      0.00011     0.00199
            196  H  3 XZ      0.00011     0.00199
            197  H  3 YZ      0.00011     0.00199
            198  H  3 XX      0.00185     0.03272
            199  H  3 YY      0.00185     0.03272
            200  H  3 ZZ      0.00185     0.03272
            201  H  3 XY      0.00010     0.00016
            202  H  3 XZ      0.00010     0.00016
            203  H  3 YZ      0.00010     0.00016
            204  H  3 XX      0.00050     0.02536
            205  H  3 YY      0.00050     0.02536
            206  H  3 ZZ      0.00050     0.02536
            207  H  3 XY      0.00000     0.00000
            208  H  3 XZ      0.00000     0.00000
            209  H  3 YZ      0.00000     0.00000
            210  H  3 XXX    -0.00018     0.00132
            211  H  3 YYY    -0.00018     0.00132
            212  H  3 ZZZ    -0.00018     0.00132
            213  H  3 XXY    -0.00006     0.00090
            214  H  3 XXZ    -0.00006     0.00090
            215  H  3 YYX    -0.00006     0.00090
            216  H  3 YYZ    -0.00006     0.00090
            217  H  3 ZZX    -0.00006     0.00090
            218  H  3 ZZY    -0.00006     0.00090
            219  H  3 XYZ     0.00001     0.00004
            220  H  3 XXX    -0.00006     0.00018
            221  H  3 YYY    -0.00006     0.00018
            222  H  3 ZZZ    -0.00006     0.00018
            223  H  3 XXY    -0.00002     0.00009
            224  H  3 XXZ    -0.00002     0.00009
            225  H  3 YYX    -0.00002     0.00009
            226  H  3 YYZ    -0.00002     0.00009
            227  H  3 ZZX    -0.00002     0.00009
            228  H  3 ZZY    -0.00002     0.00009
            229  H  3 XYZ     0.00000     0.00000
            230  H  3XXXX     0.00013     0.01548
            231  H  3YYYY     0.00013     0.01548
            232  H  3ZZZZ     0.00013     0.01548
            233  H  3XXXY    -0.00001     0.00008
            234  H  3XXXZ    -0.00001     0.00008
            235  H  3YYYX    -0.00001     0.00008
            236  H  3YYYZ    -0.00001     0.00008
            237  H  3ZZZX    -0.00001     0.00008
            238  H  3ZZZY    -0.00001     0.00008
            239  H  3XXYY     0.00011     0.01962
            240  H  3XXZZ     0.00011     0.01962
            241  H  3YYZZ     0.00011     0.01962
            242  H  3XXYZ    -0.00000     0.00005
            243  H  3YYXZ    -0.00000     0.00005
            244  H  3ZZXY    -0.00000     0.00005
            245  H  4  S      1.53552     0.14905
            246  H  4  S     -0.09475     0.07345
            247  H  4  S     -0.21937     0.11948
            248  H  4  S     -0.10040     0.11792
            249  H  4  S     -0.02351     0.10680
            250  H  4  X      0.00311     0.00958
            251  H  4  Y      0.00311     0.00958
            252  H  4  Z      0.00311     0.00958
            253  H  4  X      0.00319     0.00198
            254  H  4  Y      0.00319     0.00198
            255  H  4  Z      0.00319     0.00198
            256  H  4  X      0.00044     0.00028
            257  H  4  Y      0.00044     0.00028
            258  H  4  Z      0.00044     0.00028
            259  H  4  X      0.00001     0.00004
            260  H  4  Y      0.00001     0.00004
            261  H  4  Z      0.00001     0.00004
            262  H  4 XX      0.00058     0.04874
            263  H  4 YY      0.00058     0.04874
            264  H  4 ZZ      0.00058     0.04874
            265  H  4 XY      0.00011     0.00199
            266  H  4 XZ      0.00011     0.00199
            267  H  4 YZ      0.00011     0.00199
            268  H  4 XX      0.00185     0.03272
            269  H  4 YY      0.00185     0.03272
            270  H  4 ZZ      0.00185     0.03272
            271  H  4 XY      0.00010     0.00016
            272  H  4 XZ      0.00010     0.00016
            273  H  4 YZ      0.00010     0.00016
            274  H  4 XX      0.00050     0.02536
            275  H  4 YY      0.00050     0.02536
            276  H  4 ZZ      0.00050     0.02536
            277  H  4 XY      0.00000     0.00000
            278  H  4 XZ      0.00000     0.00000
            279  H  4 YZ      0.00000     0.00000
            280  H  4 XXX    -0.00018     0.00132
            281  H  4 YYY    -0.00018     0.00132
            282  H  4 ZZZ    -0.00018     0.00132
            283  H  4 XXY    -0.00006     0.00090
            284  H  4 XXZ    -0.00006     0.00090
            285  H  4 YYX    -0.00006     0.00090
            286  H  4 YYZ    -0.00006     0.00090
            287  H  4 ZZX    -0.00006     0.00090
            288  H  4 ZZY    -0.00006     0.00090
            289  H  4 XYZ     0.00001     0.00004
            290  H  4 XXX    -0.00006     0.00018
            291  H  4 YYY    -0.00006     0.00018
            292  H  4 ZZZ    -0.00006     0.00018
            293  H  4 XXY    -0.00002     0.00009
            294  H  4 XXZ    -0.00002     0.00009
            295  H  4 YYX    -0.00002     0.00009
            296  H  4 YYZ    -0.00002     0.00009
            297  H  4 ZZX    -0.00002     0.00009
            298  H  4 ZZY    -0.00002     0.00009
            299  H  4 XYZ     0.00000     0.00000
            300  H  4XXXX     0.00013     0.01548
            301  H  4YYYY     0.00013     0.01548
            302  H  4ZZZZ     0.00013     0.01548
            303  H  4XXXY    -0.00001     0.00008
            304  H  4XXXZ    -0.00001     0.00008
            305  H  4YYYX    -0.00001     0.00008
            306  H  4YYYZ    -0.00001     0.00008
            307  H  4ZZZX    -0.00001     0.00008
            308  H  4ZZZY    -0.00001     0.00008
            309  H  4XXYY     0.00011     0.01962
            310  H  4XXZZ     0.00011     0.01962
            311  H  4YYZZ     0.00011     0.01962
            312  H  4XXYZ    -0.00000     0.00005
            313  H  4YYXZ    -0.00000     0.00005
            314  H  4ZZXY    -0.00000     0.00005
            315  H  5  S      1.53552     0.14905
            316  H  5  S     -0.09475     0.07345
            317  H  5  S     -0.21937     0.11948
            318  H  5  S     -0.10040     0.11792
            319  H  5  S     -0.02351     0.10680
            320  H  5  X      0.00311     0.00958
            321  H  5  Y      0.00311     0.00958
            322  H  5  Z      0.00311     0.00958
            323  H  5  X      0.00319     0.00198
            324  H  5  Y      0.00319     0.00198
            325  H  5  Z      0.00319     0.00198
            326  H  5  X      0.00044     0.00028
            327  H  5  Y      0.00044     0.00028
            328  H  5  Z      0.00044     0.00028
            329  H  5  X      0.00001     0.00004
            330  H  5  Y      0.00001     0.00004
            331  H  5  Z      0.00001     0.00004
            332  H  5 XX      0.00058     0.04874
            333  H  5 YY      0.00058     0.04874
            334  H  5 ZZ      0.00058     0.04874
            335  H  5 XY      0.00011     0.00199
            336  H  5 XZ      0.00011     0.00199
            337  H  5 YZ      0.00011     0.00199
            338  H  5 XX      0.00185     0.03272
            339  H  5 YY      0.00185     0.03272
            340  H  5 ZZ      0.00185     0.03272
            341  H  5 XY      0.00010     0.00016
            342  H  5 XZ      0.00010     0.00016
            343  H  5 YZ      0.00010     0.00016
            344  H  5 XX      0.00050     0.02536
            345  H  5 YY      0.00050     0.02536
            346  H  5 ZZ      0.00050     0.02536
            347  H  5 XY      0.00000     0.00000
            348  H  5 XZ      0.00000     0.00000
            349  H  5 YZ      0.00000     0.00000
            350  H  5 XXX    -0.00018     0.00132
            351  H  5 YYY    -0.00018     0.00132
            352  H  5 ZZZ    -0.00018     0.00132
            353  H  5 XXY    -0.00006     0.00090
            354  H  5 XXZ    -0.00006     0.00090
            355  H  5 YYX    -0.00006     0.00090
            356  H  5 YYZ    -0.00006     0.00090
            357  H  5 ZZX    -0.00006     0.00090
            358  H  5 ZZY    -0.00006     0.00090
            359  H  5 XYZ     0.00001     0.00004
            360  H  5 XXX    -0.00006     0.00018
            361  H  5 YYY    -0.00006     0.00018
            362  H  5 ZZZ    -0.00006     0.00018
            363  H  5 XXY    -0.00002     0.00009
            364  H  5 XXZ    -0.00002     0.00009
            365  H  5 YYX    -0.00002     0.00009
            366  H  5 YYZ    -0.00002     0.00009
            367  H  5 ZZX    -0.00002     0.00009
            368  H  5 ZZY    -0.00002     0.00009
            369  H  5 XYZ     0.00000     0.00000
            370  H  5XXXX     0.00013     0.01548
            371  H  5YYYY     0.00013     0.01548
            372  H  5ZZZZ     0.00013     0.01548
            373  H  5XXXY    -0.00001     0.00008
            374  H  5XXXZ    -0.00001     0.00008
            375  H  5YYYX    -0.00001     0.00008
            376  H  5YYYZ    -0.00001     0.00008
            377  H  5ZZZX    -0.00001     0.00008
            378  H  5ZZZY    -0.00001     0.00008
            379  H  5XXYY     0.00011     0.01962
            380  H  5XXZZ     0.00011     0.01962
            381  H  5YYZZ     0.00011     0.01962
            382  H  5XXYZ    -0.00000     0.00005
            383  H  5YYXZ    -0.00000     0.00005
            384  H  5ZZXY    -0.00000     0.00005

          ----- MULLIKEN ATOMIC OVERLAP POPULATIONS -----
          (OFF-DIAGONAL ELEMENTS NEED TO BE MULTIPLIED BY 2)

             1           2           3           4           5

    1    1.8143915
    2    0.4198026   0.7699776
    3    0.4198026  -0.0210602   0.7699776
    4    0.4198026  -0.0210602  -0.0210602   0.7699776
    5    0.4198026  -0.0210602  -0.0210602  -0.0210602   0.7699776

          TOTAL MULLIKEN AND LOWDIN ATOMIC POPULATIONS
       ATOM         MULL.POP.    CHARGE          LOW.POP.     CHARGE
    1 SI            3.493602    0.506398         3.816927    0.183073
    2 H             1.126600   -0.126600         1.045768   -0.045768
    3 H             1.126600   -0.126600         1.045768   -0.045768
    4 H             1.126600   -0.126600         1.045768   -0.045768
    5 H             1.126600   -0.126600         1.045768   -0.045768

          -------------------------------
          BOND ORDER AND VALENCE ANALYSIS     BOND ORDER THRESHOLD=0.050
          -------------------------------

                   BOND                       BOND                       BOND
  ATOM PAIR DIST  ORDER      ATOM PAIR DIST  ORDER      ATOM PAIR DIST  ORDER
    1   2  1.480  0.953        1   3  1.480  0.953        1   4  1.480  0.953
    1   5  1.480  0.953

                       TOTAL       BONDED        FREE
      ATOM            VALENCE     VALENCE     VALENCE
    1 SI                3.813       3.813       0.000
    2 H                 0.958       0.958       0.000
    3 H                 0.958       0.958       0.000
    4 H                 0.958       0.958       0.000
    5 H                 0.958       0.958      -0.000

          ---------------------
          ELECTROSTATIC MOMENTS
          ---------------------

 POINT   1           X           Y           Z (BOHR)    CHARGE
                 0.000000    0.000000    0.000000       -0.00 (A.U.)
         DX          DY          DZ         /D/  (DEBYE)
    -0.000000    0.000000   -0.000000    0.000000
 ...... END OF PROPERTY EVALUATION ......
 STEP CPU TIME =     0.42 TOTAL CPU TIME =      812.9 (   13.5 MIN)
 TOTAL WALL CLOCK TIME=     2369.9 SECONDS, CPU UTILIZATION IS  34.30%
              1089354  WORDS OF DYNAMIC MEMORY USED
 EXECUTION OF GAMESS TERMINATED NORMALLY Fri May 29 23:28:40 2020
 DDI: 263640 bytes (0.3 MB / 0 MWords) used by master data server.

 ----------------------------------------
 CPU timing information for all processes
 ========================================
 0: 544.568 + 268.360 = 812.928
 ----------------------------------------
 ddikick.x: exited gracefully.
----- accounting info -----
Files used on the master node gwang18-p3 were:
-rw-rw-r-- 1 gwang18 gwang18     2384575 5月  29 23:28 /home/gwang18/research/projects/si_gap/sih4/cis/5z/cis/30orb/hf.dat
-rw-rw-r-- 1 gwang18 gwang18        5689 5月  29 22:49 /home/gwang18/research/projects/si_gap/sih4/cis/5z/cis/30orb/hf.F05
-rw-rw-r-- 1 gwang18 gwang18 32270631232 5月  29 22:53 /home/gwang18/research/projects/si_gap/sih4/cis/5z/cis/30orb/hf.F08
-rw-rw-r-- 1 gwang18 gwang18    17243440 5月  29 23:28 /home/gwang18/research/projects/si_gap/sih4/cis/5z/cis/30orb/hf.F10
-rw-rw-r-- 1 gwang18 gwang18        5689 5月  29 22:20 /home/gwang18/research/projects/si_gap/sih4/cis/5z/cis/30orb/hf.inp
-rw-rw-r-- 1 gwang18 gwang18     2160088 5月  29 23:28 /home/gwang18/research/projects/si_gap/sih4/cis/5z/cis/30orb/hf.out
2020年 05月 29日 星期五 23:28:44 EDT
0.0u 0.6s 39:33.89 0.0% 0+0k 128+24io 8pf+0w
