----- GAMESS execution script 'rungms' -----
This job is running on host gwang18-p3
under operating system Linux at 2020年 05月 29日 星期五 00:34:39 EDT
Available scratch disk space (Kbyte units) at beginning of the job is
Filesystem     1K-blocks      Used Available Use% Mounted on
/dev/sda6      216112148 177733432  27377732  87% /
GAMESS temporary binary files will be written to /home/gwang18/research/projects/si_gap/sih4/cis/aug-qz/30orb
GAMESS supplementary output files will be written to /home/gwang18/research/projects/si_gap/sih4/cis/aug-qz/30orb
Copying input file ci.inp to your run's scratch directory...

 Distributed Data Interface kickoff program.
 Initiating 1 compute processes on 1 nodes to run the following command:
 /home/gwang18/software/gamess/gamess.00.x ci 

          ******************************************************
          *         GAMESS VERSION =  5 DEC 2014 (R1)          *
          *             FROM IOWA STATE UNIVERSITY             *
          * M.W.SCHMIDT, K.K.BALDRIDGE, J.A.BOATZ, S.T.ELBERT, *
          *   M.S.GORDON, J.H.JENSEN, S.KOSEKI, N.MATSUNAGA,   *
          *          K.A.NGUYEN, S.J.SU, T.L.WINDUS,           *
          *       TOGETHER WITH M.DUPUIS, J.A.MONTGOMERY       *
          *         J.COMPUT.CHEM.  14, 1347-1363(1993)        *
          **************** 64 BIT LINUX VERSION ****************

  SINCE 1993, STUDENTS AND POSTDOCS WORKING AT IOWA STATE UNIVERSITY
  AND ALSO IN THEIR VARIOUS JOBS AFTER LEAVING ISU HAVE MADE IMPORTANT
  CONTRIBUTIONS TO THE CODE:
     IVANA ADAMOVIC, CHRISTINE AIKENS, YURI ALEXEEV, POOJA ARORA,
     ANDREY ASADCHEV, ROB BELL, PRADIPTA BANDYOPADHYAY, JONATHAN BENTZ,
     BRETT BODE, KURT BRORSEN, CALEB CARLIN, GALINA CHABAN, WEI CHEN,
     CHEOL HO CHOI, PAUL DAY, ALBERT DEFUSCO, NUWAN DESILVA, TIM DUDLEY,
     DMITRI FEDOROV, GRAHAM FLETCHER, MARK FREITAG, KURT GLAESEMANN,
     DAN KEMP, GRANT MERRILL, NORIYUKI MINEZAWA, JONATHAN MULLIN,
     TAKESHI NAGATA, SEAN NEDD, HEATHER NETZLOFF, BOSILJKA NJEGIC, RYAN OLSON,
     MIKE PAK, SPENCER PRUITT, LUKE ROSKOP, JIM SHOEMAKER, LYUDMILA SLIPCHENKO,
     TONY SMITH, SAROM SOK, JIE SONG, TETSUYA TAKETSUGU, SIMON WEBB,
     PENG XU, SOOHAENG YOO, FEDERICO ZAHARIEV

  ADDITIONAL CODE HAS BEEN PROVIDED BY COLLABORATORS IN OTHER GROUPS:
     IOWA STATE UNIVERSITY:
          JOE IVANIC, AARON WEST, LAIMUTIS BYTAUTAS, KLAUS RUEDENBERG
     UNIVERSITY OF TOKYO: KIMIHIKO HIRAO, TAKAHITO NAKAJIMA,
          TAKAO TSUNEDA, MUNEAKI KAMIYA, SUSUMU YANAGISAWA,
          KIYOSHI YAGI, MAHITO CHIBA, SEIKEN TOKURA, NAOAKI KAWAKAMI
     UNIVERSITY OF AARHUS: FRANK JENSEN
     UNIVERSITY OF IOWA: VISVALDAS KAIRYS, HUI LI
     NATIONAL INST. OF STANDARDS AND TECHNOLOGY: WALT STEVENS, DAVID GARMER
     UNIVERSITY OF PISA: BENEDETTA MENNUCCI, JACOPO TOMASI
     UNIVERSITY OF MEMPHIS: HENRY KURTZ, PRAKASHAN KORAMBATH
     UNIVERSITY OF ALBERTA: TOBY ZENG, MARIUSZ KLOBUKOWSKI
     UNIVERSITY OF NEW ENGLAND: MARK SPACKMAN
     MIE UNIVERSITY: HIROAKI UMEDA
     NAT. INST. OF ADVANCED INDUSTRIAL SCIENCE AND TECHNOLOGY: KAZUO KITAURA
     MICHIGAN STATE UNIVERSITY:
          KAROL KOWALSKI, MARTA WLOCH, JEFFREY GOUR, JESSE LUTZ,
          WEI LI, PIOTR PIECUCH
     UNIVERSITY OF SILESIA: MONIKA MUSIAL, STANISLAW KUCHARSKI
     FACULTES UNIVERSITAIRES NOTRE-DAME DE LA PAIX:
          OLIVIER QUINET, BENOIT CHAMPAGNE
     UNIVERSITY OF CALIFORNIA - SANTA BARBARA: BERNARD KIRTMAN
     INSTITUTE FOR MOLECULAR SCIENCE:
          KAZUYA ISHIMURA, MICHIO KATOUDA, AND SHIGERU NAGASE
     UNIVERSITY OF NOTRE DAME: ANNA POMOGAEVA, DAN CHIPMAN
     KYUSHU UNIVERSITY:
          HARUYUKI NAKANO,
          FENG LONG GU, JACEK KORCHOWIEC, MARCIN MAKOWSKI, AND YURIKO AOKI,
          HIROTOSHI MORI AND EISAKU MIYOSHI
     PENNSYLVANIA STATE UNIVERSITY:
          TZVETELIN IORDANOV, CHET SWALINA, JONATHAN SKONE,
          SHARON HAMMES-SCHIFFER
     WASEDA UNIVERSITY:
          MASATO KOBAYASHI, TOMOKO AKAMA, TSUGUKI TOUMA,
          TAKESHI YOSHIKAWA, YASUHIRO IKABATA, HIROMI NAKAI
     NANJING UNIVERSITY: SHUHUA LI
     UNIVERSITY OF NEBRASKA:
          PEIFENG SU, DEJUN SI, NANDUN THELLAMUREGE, YALI WANG, HUI LI
     UNIVERSITY OF ZURICH: ROBERTO PEVERATI, KIM BALDRIDGE
     N. COPERNICUS UNIVERSITY AND JACKSON STATE UNIVERSITY:
          MARIA BARYSZ
     UNIVERSITY OF COPENHAGEN: CASPER STEINMANN
     TOKYO INSTITUTE OF TECHNOLOGY: HIROYA NAKATA
     NAGOYA UNIVERSITY: YOSHIO NISHIMOTO, STEPHAN IRLE

 EXECUTION OF GAMESS BEGUN Fri May 29 00:34:39 2020

            ECHO OF THE FIRST FEW INPUT CARDS -
 INPUT CARD> $CONTRL                                                                        
 INPUT CARD>     CITYP=GUGA                                                                 
 INPUT CARD>     SCFTYP=NONE                                                                
 INPUT CARD>     MULT=1                                                                     
 INPUT CARD>     ICHARG=0                                                                   
 INPUT CARD>     RUNTYP=energy                                                              
 INPUT CARD>     MAXIT=100                                                                  
 INPUT CARD>     PP=READ                                                                    
 INPUT CARD>     UNITS=ANGS                                                                 
 INPUT CARD>     QMTTOL=1.0E-06                                                             
 INPUT CARD> $END                                                                           
 INPUT CARD>                                                                                
 INPUT CARD> $SYSTEM                                                                        
 INPUT CARD>    MWORDS=1000                                                                 
 INPUT CARD>    MEMDDI=1000                                                                 
 INPUT CARD> $END                                                                           
 INPUT CARD>                                                                                
 INPUT CARD> $GUESS                                                                         
 INPUT CARD>     GUESS=MOREAD                                                               
 INPUT CARD>     NORB=40                                                                    
 INPUT CARD>     PUNMO=.T.                                                                  
 INPUT CARD>     PRTMO=.T.                                                                  
 INPUT CARD>!     GUESS=HUCKEL                                                              
 INPUT CARD> $END                                                                           
 INPUT CARD>                                                                                
 INPUT CARD>! $SCF DAMP=.T. SOSCF=.F. SHIFT=.T. RSTRCT=.T. DIIS=.T.  $end                   
 INPUT CARD>                                                                                
 INPUT CARD>                                                                                
 INPUT CARD>! $MCSCF                                                                        
 INPUT CARD>!      CISTEP=GUGA                                                              
 INPUT CARD>! $END                                                                          
 INPUT CARD>                                                                                
 INPUT CARD> $CIDRT                                                                         
 INPUT CARD>      NPRT=2                                                                    
 INPUT CARD>      NFZC=0                                                                    
 INPUT CARD>      NDOC=4                                                                    
 INPUT CARD> !     NAOS=1                                                                   
 INPUT CARD> !     NBOS=1                                                                   
 INPUT CARD>      NVAL=30                                                                   
 INPUT CARD>      IEXCIT=1                                                                  
 INPUT CARD>      GROUP=C1                                                                  
 INPUT CARD> $END                                                                           
 INPUT CARD>                                                                                
 INPUT CARD> $GUGDIA NSTATE=2 $END                                                          
 INPUT CARD>                                                                                
 INPUT CARD> $GUGDM NFLGDM(1)=0,1 IROOT=2 $END                                              
 INPUT CARD>                                                                                
 INPUT CARD>! $CIS                                                                          
 INPUT CARD>!      HAMTYP=SAPS MULT=1 NACORE=0 NSTATE=1 IROOT=1                             
 INPUT CARD>! $END                                                                          
 1000000000 WORDS OF MEMORY AVAILABLE


     RUN TITLE
     ---------
 Silane CIS calculation                                                          

 THE POINT GROUP OF THE MOLECULE IS C1      
 THE ORDER OF THE PRINCIPAL AXIS IS     0
 *** WARNING! ATOM   1 SHELL    6 TYPE P HAS NORMALIZATION   0.99999860

 ATOM      ATOMIC                      COORDINATES (BOHR)
           CHARGE         X                   Y                   Z
 SI         14.0     0.0000000000        0.0000000000        0.0000000000
 H           1.0     1.6145818839        1.6145818839        1.6145818839
 H           1.0    -1.6145818839       -1.6145818839        1.6145818839
 H           1.0    -1.6145818839        1.6145818839       -1.6145818839
 H           1.0     1.6145818839       -1.6145818839       -1.6145818839

          INTERNUCLEAR DISTANCES (ANGS.)
          ------------------------------

                1 SI         2 H          3 H          4 H          5 H     

   1 SI      0.0000000    1.4798642 *  1.4798642 *  1.4798642 *  1.4798642 *
   2 H       1.4798642 *  0.0000000    2.4166081 *  2.4166081 *  2.4166081 *
   3 H       1.4798642 *  2.4166081 *  0.0000000    2.4166081 *  2.4166081 *
   4 H       1.4798642 *  2.4166081 *  2.4166081 *  0.0000000    2.4166081 *
   5 H       1.4798642 *  2.4166081 *  2.4166081 *  2.4166081 *  0.0000000  

  * ... LESS THAN  3.000


     ATOMIC BASIS SET
     ----------------
 THE CONTRACTED PRIMITIVE FUNCTIONS HAVE BEEN UNNORMALIZED
 THE CONTRACTED BASIS FUNCTIONS ARE NOW NORMALIZED TO UNITY

  SHELL TYPE  PRIMITIVE        EXPONENT          CONTRACTION COEFFICIENT(S)

 SI        

      1   S       1             9.9982740    0.002893997896
      1   S       2             5.5176440   -0.014522989441
      1   S       3             3.0449650    0.077633943557
      1   S       4             1.6803930   -0.224021837126
      1   S       5             0.9273410   -0.149079891612
      1   S       6             0.5117620    0.085943937515
      1   S       7             0.2824210    0.355393741613
      1   S       8             0.1558570    0.445218676307
      1   S       9             0.0860110    0.267229805712
      1   S      10             0.0474660    0.060786955805

      2   S      11             0.4885040    1.000000000000

      3   S      12             0.1994570    1.000000000000

      4   S      13             0.0814390    1.000000000000

      5   S      14             0.0349830    1.000000000000

      6   P      15             5.0278680   -0.003241995466
      6   P      16             2.8677510    0.010648985106
      6   P      17             1.6356830   -0.049760930401
      6   P      18             0.9329470   -0.000016999976
      6   P      19             0.5321260    0.106059851657
      6   P      20             0.3035090    0.236201669632
      6   P      21             0.1731130    0.310664565483
      6   P      22             0.0987390    0.294695587818
      6   P      23             0.0563180    0.153897784748
      6   P      24             0.0321220    0.042336940785

      7   P      25             1.2257900    1.000000000000

      8   P      26             0.5013640    1.000000000000

      9   P      27             0.2050640    1.000000000000

     10   P      28             0.0254720    1.000000000000

     11   D      29             0.9970030    1.000000000000

     12   D      30             0.3659420    1.000000000000

     13   D      31             0.1343160    1.000000000000

     14   D      32             0.0464970    1.000000000000

     15   F      33             0.5491160    1.000000000000

     16   F      34             0.2149980    1.000000000000

     17   F      35             0.0868520    1.000000000000

     18   G      36             0.4595470    1.000000000000

     19   G      37             0.2073800    1.000000000000

 H         

     20   S      38            23.8431850    0.004114899701
     20   S      39            10.2124430    0.010464399240
     20   S      40             4.3741640    0.028011097966
     20   S      41             1.8735290    0.075886194491
     20   S      42             0.8024650    0.182106186780
     20   S      43             0.3437090    0.348521374698
     20   S      44             0.1472170    0.378231272542
     20   S      45             0.0630550    0.116424091548

     21   S      46             0.0287260    1.000000000000

     22   S      47             0.0818560    1.000000000000

     23   S      48             0.2332540    1.000000000000

     24   S      49             0.6646730    1.000000000000

     25   P      50             0.0955220    1.000000000000

     26   P      51             0.2844690    1.000000000000

     27   P      52             0.8471590    1.000000000000

     28   P      53             2.5228680    1.000000000000

     29   D      54             0.2160330    1.000000000000

     30   D      55             0.6652790    1.000000000000

     31   D      56             2.0487390    1.000000000000

     32   F      57             0.4446470    1.000000000000

     33   F      58             1.4214600    1.000000000000

 H         

     34   S      59            23.8431850    0.004114899701
     34   S      60            10.2124430    0.010464399240
     34   S      61             4.3741640    0.028011097966
     34   S      62             1.8735290    0.075886194491
     34   S      63             0.8024650    0.182106186780
     34   S      64             0.3437090    0.348521374698
     34   S      65             0.1472170    0.378231272542
     34   S      66             0.0630550    0.116424091548

     35   S      67             0.0287260    1.000000000000

     36   S      68             0.0818560    1.000000000000

     37   S      69             0.2332540    1.000000000000

     38   S      70             0.6646730    1.000000000000

     39   P      71             0.0955220    1.000000000000

     40   P      72             0.2844690    1.000000000000

     41   P      73             0.8471590    1.000000000000

     42   P      74             2.5228680    1.000000000000

     43   D      75             0.2160330    1.000000000000

     44   D      76             0.6652790    1.000000000000

     45   D      77             2.0487390    1.000000000000

     46   F      78             0.4446470    1.000000000000

     47   F      79             1.4214600    1.000000000000

 H         

     48   S      80            23.8431850    0.004114899701
     48   S      81            10.2124430    0.010464399240
     48   S      82             4.3741640    0.028011097966
     48   S      83             1.8735290    0.075886194491
     48   S      84             0.8024650    0.182106186780
     48   S      85             0.3437090    0.348521374698
     48   S      86             0.1472170    0.378231272542
     48   S      87             0.0630550    0.116424091548

     49   S      88             0.0287260    1.000000000000

     50   S      89             0.0818560    1.000000000000

     51   S      90             0.2332540    1.000000000000

     52   S      91             0.6646730    1.000000000000

     53   P      92             0.0955220    1.000000000000

     54   P      93             0.2844690    1.000000000000

     55   P      94             0.8471590    1.000000000000

     56   P      95             2.5228680    1.000000000000

     57   D      96             0.2160330    1.000000000000

     58   D      97             0.6652790    1.000000000000

     59   D      98             2.0487390    1.000000000000

     60   F      99             0.4446470    1.000000000000

     61   F     100             1.4214600    1.000000000000

 H         

     62   S     101            23.8431850    0.004114899701
     62   S     102            10.2124430    0.010464399240
     62   S     103             4.3741640    0.028011097966
     62   S     104             1.8735290    0.075886194491
     62   S     105             0.8024650    0.182106186780
     62   S     106             0.3437090    0.348521374698
     62   S     107             0.1472170    0.378231272542
     62   S     108             0.0630550    0.116424091548

     63   S     109             0.0287260    1.000000000000

     64   S     110             0.0818560    1.000000000000

     65   S     111             0.2332540    1.000000000000

     66   S     112             0.6646730    1.000000000000

     67   P     113             0.0955220    1.000000000000

     68   P     114             0.2844690    1.000000000000

     69   P     115             0.8471590    1.000000000000

     70   P     116             2.5228680    1.000000000000

     71   D     117             0.2160330    1.000000000000

     72   D     118             0.6652790    1.000000000000

     73   D     119             2.0487390    1.000000000000

     74   F     120             0.4446470    1.000000000000

     75   F     121             1.4214600    1.000000000000

 TOTAL NUMBER OF BASIS SET SHELLS             =   75
 NUMBER OF CARTESIAN GAUSSIAN BASIS FUNCTIONS =  324
 NUMBER OF ELECTRONS                          =   18
 CHARGE OF MOLECULE                           =    0
 SPIN MULTIPLICITY                            =    1
 NUMBER OF OCCUPIED ORBITALS (ALPHA)          =    9
 NUMBER OF OCCUPIED ORBITALS (BETA )          =    9
 TOTAL NUMBER OF ATOMS                        =    5
 THE NUCLEAR REPULSION ENERGY IS       21.3386114148
 NOTE THIS RUN IS USING CORE POTENTIALS, AND THE NUMBER OF ELECTRONS,
 OCCUPIED ORBITALS, AND NUCLEAR REPULSION ENERGY WILL BE ADJUSTED BELOW
 AFTER REMOVAL OF THE CORE CHARGES.

     $CONTRL OPTIONS
     ---------------
 SCFTYP=NONE         RUNTYP=ENERGY       EXETYP=RUN     
 MPLEVL=       0     CITYP =GUGA         CCTYP =NONE         VBTYP =NONE    
 DFTTYP=NONE         TDDFT =NONE    
 MULT  =       1     ICHARG=       0     NZVAR =       0     COORD =UNIQUE  
 PP    =READ         RELWFN=NONE         LOCAL =NONE         NUMGRD=       F
 ISPHER=      -1     NOSYM =       0     MAXIT =     100     UNITS =ANGS    
 PLTORB=       F     MOLPLT=       F     AIMPAC=       F     FRIEND=        
 NPRINT=       7     IREST =       0     GEOM  =INPUT   
 NORMF =       0     NORMP =       0     ITOL  =      20     ICUT  =       9
 INTTYP=BEST         GRDTYP=BEST         QMTTOL= 1.0E-06

     $SYSTEM OPTIONS
     ---------------
  REPLICATED MEMORY=  1000000000 WORDS (ON EVERY NODE).
 DISTRIBUTED MEMDDI=        1000 MILLION WORDS IN AGGREGATE,
 MEMDDI DISTRIBUTED OVER   1 PROCESSORS IS  1000000000 WORDS/PROCESSOR.
 TOTAL MEMORY REQUESTED ON EACH PROCESSOR=  2000000000 WORDS.
 TIMLIM=      525600.00 MINUTES, OR     365.0 DAYS.
 PARALL= F  BALTYP=  DLB     KDIAG=    0  COREFL= F
 MXSEQ2=     300 MXSEQ3=     150  mem10=         0

          --------------
          ECP POTENTIALS
          --------------

 PARAMETERS FOR "SI-CCECP" ON ATOM    1 WITH ZCORE  10 AND LMAX  2 ARE
 FOR L= 2      COEFF    N           ZETA
    1        4.00000    1        5.16832
    2       20.67326    3        8.86169
    3      -14.81817    2        3.93347
 FOR L= 0      COEFF    N           ZETA
    1       14.83276    2        9.44702
    2       26.34966    2        2.55381
 FOR L= 1      COEFF    N           ZETA
    1        7.62140    2        3.66000
    2       10.33158    2        1.90365

 PARAMETERS FOR "H-CCECP " ON ATOM    2 WITH ZCORE   0 AND LMAX  1 ARE
 FOR L= 1      COEFF    N           ZETA
    1        1.00000    1       21.24360
    2       21.24360    3       21.24360
    3      -10.85192    2       21.77697
 FOR L= 0      COEFF    N           ZETA
    1        0.00000    2        1.00000

 PARAMETERS FOR "H-CCECP " ON ATOM    3 ARE THE SAME AS ATOM   2

 PARAMETERS FOR "H-CCECP " ON ATOM    4 ARE THE SAME AS ATOM   2

 PARAMETERS FOR "H-CCECP " ON ATOM    5 ARE THE SAME AS ATOM   2

 THE ECP RUN REMOVES   10 CORE ELECTRONS, AND THE SAME NUMBER OF PROTONS.
 NUMBER OF ELECTRONS KEPT IN THE CALCULATION IS =    8
 NUMBER OF OCCUPIED ORBITALS (ALPHA) KEPT IS    =    4
 NUMBER OF OCCUPIED ORBITALS (BETA ) KEPT IS    =    4
 THE ADJUSTED NUCLEAR REPULSION ENERGY=        7.0352112604
          ECP ANGULAR INTS.........     0.02 SECONDS

          ----------------
          PROPERTIES INPUT
          ----------------

     MOMENTS            FIELD           POTENTIAL          DENSITY
 IEMOM =       1   IEFLD =       0   IEPOT =       0   IEDEN =       0
 WHERE =COMASS     WHERE =NUCLEI     WHERE =NUCLEI     WHERE =NUCLEI  
 OUTPUT=BOTH       OUTPUT=BOTH       OUTPUT=BOTH       OUTPUT=BOTH    
 IEMINT=       0   IEFINT=       0                     IEDINT=       0
                                                       MORB  =       0
          EXTRAPOLATION IN EFFECT
          SOSCF IN EFFECT
 ORBITAL PRINTING OPTION: NPREO=     1   324     2     1

     -------------------------------
     INTEGRAL TRANSFORMATION OPTIONS
     -------------------------------
     NWORD  =            0
     CUTOFF = 1.0E-09     MPTRAN =       0
     DIRTRF =       F     AOINTS =DUP     

          ----------------------
          INTEGRAL INPUT OPTIONS
          ----------------------
 NOPK  =       1 NORDER=       0 SCHWRZ=       F

     ------------------------------------------
     THE POINT GROUP IS C1 , NAXIS= 0, ORDER= 1
     ------------------------------------------

     DIMENSIONS OF THE SYMMETRY SUBSPACES ARE
 A   =  324

 ..... DONE SETTING UP THE RUN .....
 STEP CPU TIME =     0.41 TOTAL CPU TIME =        0.4 (    0.0 MIN)
 TOTAL WALL CLOCK TIME=        0.4 SECONDS, CPU UTILIZATION IS  97.62%

          ********************
          1 ELECTRON INTEGRALS
          ********************
 TIME TO DO ORDINARY INTEGRALS=      0.01
 TIME TO DO      ECP INTEGRALS=      0.23
 ...... END OF ONE-ELECTRON INTEGRALS ......
 STEP CPU TIME =     0.24 TOTAL CPU TIME =        0.6 (    0.0 MIN)
 TOTAL WALL CLOCK TIME=        0.7 SECONDS, CPU UTILIZATION IS  98.48%

          -------------
          GUESS OPTIONS
          -------------
          GUESS =MOREAD            NORB  =      40          NORDER=       0
          MIX   =       F          PRTMO =       T          PUNMO =       T
          TOLZ  = 1.0E-08          TOLE  = 1.0E-05
          SYMDEN=       F          PURIFY=       F

 INITIAL GUESS ORBITALS GENERATED BY MOREAD   ROUTINE.

 STATISTICS FOR GENERATION OF SYMMETRY ORBITAL -Q- MATRIX
 NUMBER OF CARTESIAN ATOMIC ORBITALS=        324
 NUMBER OF SPHERICAL CONTAMINANTS DROPPED=     0
 NUMBER OF LINEARLY DEPENDENT MOS DROPPED=     2
 TOTAL NUMBER OF MOS IN VARIATION SPACE=     322

 ...WARNING (SYMORB.SRC)...
 THE INPUT BASIS SET CONTAINS APPROXIMATE LINEAR DEPENDENCE.
 THE SMALLEST EIGENVALUE OF THE OVERLAP MATRIX IS   8.197418E-08
 THERE ARE    2 EIGENVALUES LESS THAN QMTTOL=  1.00E-06
 EIGENVECTORS BELOW -QMTTOL- ARE DROPPED FROM THE MO SPACE,
 IN ORDER TO ELIMINATE THE APPROXIMATE LINEAR DEPENDENCE.

 THIS WILL MOST LIKELY CHANGE THE ENERGY ON THE ORDER OF TENS OF MICROHARTREES,
 DEPENDING ON THE NUMBER OF ORBITALS REMOVED.  THE VALUE OF QMTTOL CAN BE 
 CHANGED IN $CONTRL: JOBS WITH EIGENVALUES BELOW 1.0E-07 PROBABLY WON'T
 CONVERGE.  EIGENVALUES BETWEEN 1.0E-07 AND 1.0E-06 MAY REQUIRE LOOSENING OF
 THE DENSITY CRITERION (CONV IN $SCF), MORE ACCURATE INTEGRAL EVALUATION
 (ICUT=11 IN $CONTRL), MORE ACCURATE DIRECT SCF FOCK MATRIX
 CONSTRUCTION (FDIFF=.FALSE. IN $SCF), OR CHANGING THE SCF CONVERGER
 (DIIS=.TRUE. IN $SCF).

                    * * * * * WARNING * * * * *
 POSSIBLE LINEAR DEPENDENCE PROBLEMS DETECTED, INPUT QMTTOL= 1.0E-06,
 WITH     4 OVERLAP EIGENVALUES LYING BETWEEN 1.0E-05 AND QMTTOL.
 IF YOU EXPERIENCE SCF CONVERGENCE DIFFICULTIES WITH THE DENSITY ALMOST BUT
 NOT QUITE CONVERGED, YOU MAY NEED TO LOOSEN -QMTTOL- BY A FACTOR 5 TO 10.
 EIGENVALUES ARE DIAGONAL OF 1E- H IN MO BASIS

 SYMMETRIES FOR INITIAL GUESS ORBITALS FOLLOW.   BOTH SET(S).
     4 ORBITALS ARE OCCUPIED (    0 CORE ORBITALS).
     1=A        2=A        3=A        4=A        5=A        6=A        7=A   
     8=A        9=A       10=A       11=A       12=A       13=A       14=A   
    15=A       16=A       17=A       18=A       19=A       20=A       21=A   
    22=A       23=A       24=A       25=A       26=A       27=A       28=A   
    29=A       30=A       31=A       32=A       33=A       34=A       35=A   
    36=A       37=A       38=A       39=A       40=A       41=A       42=A   
    43=A       44=A       45=A       46=A       47=A       48=A       49=A   
    50=A       51=A       52=A       53=A       54=A       55=A       56=A   
    57=A       58=A       59=A       60=A       61=A       62=A       63=A   
    64=A       65=A       66=A       67=A       68=A       69=A       70=A   
    71=A       72=A       73=A       74=A       75=A       76=A       77=A   
    78=A       79=A       80=A       81=A       82=A       83=A       84=A   
    85=A       86=A       87=A       88=A       89=A       90=A       91=A   
    92=A       93=A       94=A       95=A       96=A       97=A       98=A   
    99=A      100=A      101=A      102=A      103=A      104=A      105=A   
   106=A      107=A      108=A      109=A      110=A      111=A      112=A   
   113=A      114=A      115=A      116=A      117=A      118=A      119=A   
   120=A      121=A      122=A      123=A      124=A      125=A      126=A   
   127=A      128=A      129=A      130=A      131=A      132=A      133=A   
   134=A      135=A      136=A      137=A      138=A      139=A      140=A   
   141=A      142=A      143=A      144=A      145=A      146=A      147=A   
   148=A      149=A      150=A      151=A      152=A      153=A      154=A   
   155=A      156=A      157=A      158=A      159=A      160=A      161=A   
   162=A      163=A      164=A      165=A      166=A      167=A      168=A   
   169=A      170=A      171=A      172=A      173=A      174=A      175=A   
   176=A      177=A      178=A      179=A      180=A      181=A      182=A   
   183=A      184=A      185=A      186=A      187=A      188=A      189=A   
   190=A      191=A      192=A      193=A      194=A      195=A      196=A   
   197=A      198=A      199=A      200=A      201=A      202=A      203=A   
   204=A      205=A      206=A      207=A      208=A      209=A      210=A   
   211=A      212=A      213=A      214=A      215=A      216=A      217=A   
   218=A      219=A      220=A      221=A      222=A      223=A      224=A   
   225=A      226=A      227=A      228=A      229=A      230=A      231=A   
   232=A      233=A      234=A      235=A      236=A      237=A      238=A   
   239=A      240=A      241=A      242=A      243=A      244=A      245=A   
   246=A      247=A      248=A      249=A      250=A      251=A      252=A   
   253=A      254=A      255=A      256=A      257=A      258=A      259=A   
   260=A      261=A      262=A      263=A      264=A      265=A      266=A   
   267=A      268=A      269=A      270=A      271=A      272=A      273=A   
   274=A      275=A      276=A      277=A      278=A      279=A      280=A   
   281=A      282=A      283=A      284=A      285=A      286=A      287=A   
   288=A      289=A      290=A      291=A      292=A      293=A      294=A   
   295=A      296=A      297=A      298=A      299=A      300=A      301=A   
   302=A      303=A      304=A      305=A      306=A      307=A      308=A   
   309=A      310=A      311=A      312=A      313=A      314=A      315=A   
   316=A      317=A      318=A      319=A      320=A      321=A      322=A   

                              ----------------------
                              INITIAL GUESS ORBITALS
                              ----------------------

                      1          2          3          4          5
                   -2.9691    -2.6534    -2.6534    -2.6534    -1.3454
                     A          A          A          A          A   
    1  SI 1  S    0.800871  -0.000000  -0.000000   0.000000  -0.000000
    2  SI 1  S   -0.024744  -0.000000  -0.000000   0.000000  -0.000000
    3  SI 1  S   -0.012617   0.000000   0.000000  -0.000000   0.000000
    4  SI 1  S   -0.132550   0.000000   0.000000  -0.000000  -0.000000
    5  SI 1  S   -0.273912   0.000000   0.000000  -0.000000  -0.000001
    6  SI 1  X    0.000000   0.240164  -0.139016   0.180931  -0.472960
    7  SI 1  Y   -0.000000   0.207476   0.242365  -0.089182   3.093921
    8  SI 1  Z    0.000000   0.094949  -0.177973  -0.262776   0.837496
    9  SI 1  X    0.000000  -0.020623   0.011937  -0.015537  -0.039596
   10  SI 1  Y   -0.000000  -0.017816  -0.020812   0.007658   0.259021
   11  SI 1  Z   -0.000000  -0.008153   0.015283   0.022565   0.070115
   12  SI 1  X    0.000000   0.035402  -0.020492   0.026671   0.084693
   13  SI 1  Y    0.000000   0.030584   0.035727  -0.013146  -0.554031
   14  SI 1  Z   -0.000000   0.013996  -0.026235  -0.038735  -0.149971
   15  SI 1  X   -0.000000   0.129283  -0.074834   0.097397   0.297704
   16  SI 1  Y   -0.000000   0.111686   0.130467  -0.048007  -1.947465
   17  SI 1  Z    0.000000   0.051112  -0.095804  -0.141455  -0.527160
   18  SI 1  X    0.000000  -0.005140   0.002975  -0.003872  -1.038735
   19  SI 1  Y    0.000000  -0.004440  -0.005187   0.001909   6.795001
   20  SI 1  Z   -0.000000  -0.002032   0.003809   0.005624   1.839343
   21  SI 1 XX   -0.004952  -0.000000   0.000000  -0.000000  -0.000000
   22  SI 1 YY   -0.004952  -0.000000   0.000000  -0.000000  -0.000000
   23  SI 1 ZZ   -0.004952   0.000000   0.000000   0.000000  -0.000000
   24  SI 1 XY    0.000000   0.012695  -0.023795  -0.035133   0.012143
   25  SI 1 XZ   -0.000000   0.027740   0.032405  -0.011924   0.044858
   26  SI 1 YZ    0.000000   0.032110  -0.018587   0.024191  -0.006857
   27  SI 1 XX   -0.007471   0.000000   0.000000   0.000000  -0.000000
   28  SI 1 YY   -0.007471   0.000000   0.000000   0.000000  -0.000000
   29  SI 1 ZZ   -0.007471   0.000000   0.000000  -0.000000  -0.000000
   30  SI 1 XY   -0.000000   0.004869  -0.009127  -0.013477  -0.004715
   31  SI 1 XZ    0.000000   0.010641   0.012430  -0.004574  -0.017419
   32  SI 1 YZ    0.000000   0.012317  -0.007130   0.009279   0.002663
   33  SI 1 XX   -0.037415   0.000000   0.000000   0.000000   0.000000
   34  SI 1 YY   -0.037415   0.000000   0.000000  -0.000000   0.000000
   35  SI 1 ZZ   -0.037415   0.000000  -0.000000  -0.000000  -0.000000
   36  SI 1 XY    0.000000  -0.025563   0.047916   0.070748   0.435226
   37  SI 1 XZ    0.000000  -0.055859  -0.065252   0.024011   1.607835
   38  SI 1 YZ    0.000000  -0.064660   0.037428  -0.048713  -0.245786
   39  SI 1 XX    0.040865  -0.000000   0.000000   0.000000   0.000000
   40  SI 1 YY    0.040865  -0.000000   0.000000   0.000000   0.000000
   41  SI 1 ZZ    0.040865  -0.000000   0.000000   0.000000   0.000000
   42  SI 1 XY   -0.000000   0.000342  -0.000641  -0.000946   1.074414
   43  SI 1 XZ    0.000000   0.000747   0.000873  -0.000321   3.969156
   44  SI 1 YZ    0.000000   0.000865  -0.000501   0.000651  -0.606755
   45  SI 1 XXX   0.000000  -0.023014   0.013321  -0.017338  -0.027588
   46  SI 1 YYY  -0.000000  -0.019881  -0.023225   0.008546   0.180467
   47  SI 1 ZZZ  -0.000000  -0.009098   0.017054   0.025180   0.048851
   48  SI 1 XXY  -0.000000  -0.005148  -0.006014   0.002213   0.077525
   49  SI 1 XXZ  -0.000000  -0.002356   0.004416   0.006520   0.020985
   50  SI 1 YYX   0.000000  -0.005959   0.003449  -0.004489  -0.011851
   51  SI 1 YYZ  -0.000000  -0.002356   0.004416   0.006520   0.020985
   52  SI 1 ZZX   0.000000  -0.005959   0.003449  -0.004489  -0.011851
   53  SI 1 ZZY  -0.000000  -0.005148  -0.006014   0.002213   0.077525
   54  SI 1 XYZ   0.017386   0.000000   0.000000   0.000000  -0.000000
   55  SI 1 XXX   0.000000  -0.051448   0.029780  -0.038759  -0.069236
   56  SI 1 YYY  -0.000000  -0.044446  -0.051919   0.019104   0.452916
   57  SI 1 ZZZ  -0.000000  -0.020340   0.038125   0.056292   0.122600
   58  SI 1 XXY  -0.000000  -0.000716  -0.000837   0.000308   0.550597
   59  SI 1 XXZ   0.000000  -0.000328   0.000614   0.000907   0.149041
   60  SI 1 YYX   0.000000  -0.000829   0.000480  -0.000625  -0.084168
   61  SI 1 YYZ  -0.000000  -0.000328   0.000614   0.000907   0.149041
   62  SI 1 ZZX   0.000000  -0.000829   0.000480  -0.000625  -0.084168
   63  SI 1 ZZY   0.000000  -0.000716  -0.000837   0.000308   0.550597
   64  SI 1 XYZ   0.036939  -0.000000   0.000000   0.000000  -0.000000
   65  SI 1 XXX  -0.000000  -0.025663   0.014855  -0.019334  -0.015403
   66  SI 1 YYY  -0.000000  -0.022170  -0.025898   0.009530   0.100763
   67  SI 1 ZZZ   0.000000  -0.010146   0.019017   0.028079   0.027276
   68  SI 1 XXY  -0.000000  -0.012813  -0.014968   0.005508   0.927227
   69  SI 1 XXZ   0.000000  -0.005864   0.010991   0.016228   0.250992
   70  SI 1 YYX   0.000000  -0.014832   0.008585  -0.011174  -0.141743
   71  SI 1 YYZ   0.000000  -0.005864   0.010991   0.016228   0.250992
   72  SI 1 ZZX   0.000000  -0.014832   0.008585  -0.011174  -0.141743
   73  SI 1 ZZY   0.000000  -0.012813  -0.014968   0.005508   0.927227
   74  SI 1 XYZ  -0.006112  -0.000000   0.000000  -0.000000  -0.000000
   75  SI 1XXXX  -0.001610  -0.000000  -0.000000  -0.000000  -0.000000
   76  SI 1YYYY  -0.001610  -0.000000   0.000000  -0.000000  -0.000000
   77  SI 1ZZZZ  -0.001610  -0.000000  -0.000000   0.000000  -0.000000
   78  SI 1XXXY   0.000000   0.010968  -0.020558  -0.030354   0.016196
   79  SI 1XXXZ  -0.000000   0.023966   0.027996  -0.010302   0.059832
   80  SI 1YYYX   0.000000   0.010968  -0.020558  -0.030354   0.016196
   81  SI 1YYYZ   0.000000   0.027742  -0.016058   0.020900  -0.009146
   82  SI 1ZZZX  -0.000000   0.023966   0.027996  -0.010302   0.059832
   83  SI 1ZZZY   0.000000   0.027742  -0.016058   0.020900  -0.009146
   84  SI 1XXYY   0.006368  -0.000000  -0.000000   0.000000  -0.000000
   85  SI 1XXZZ   0.006368  -0.000000  -0.000000   0.000000  -0.000000
   86  SI 1YYZZ   0.006368  -0.000000  -0.000000   0.000000  -0.000000
   87  SI 1XXYZ   0.000000   0.013513  -0.007822   0.010180  -0.000980
   88  SI 1YYXZ  -0.000000   0.011674   0.013637  -0.005018   0.006409
   89  SI 1ZZXY   0.000000   0.005342  -0.010014  -0.014785   0.001735
   90  SI 1XXXX   0.007373  -0.000000  -0.000000  -0.000000  -0.000000
   91  SI 1YYYY   0.007373  -0.000000  -0.000000   0.000000  -0.000000
   92  SI 1ZZZZ   0.007373  -0.000000   0.000000   0.000000   0.000000
   93  SI 1XXXY  -0.000000   0.016309  -0.030570  -0.045136  -0.002369
   94  SI 1XXXZ  -0.000000   0.035638   0.041630  -0.015319  -0.008751
   95  SI 1YYYX  -0.000000   0.016309  -0.030570  -0.045136  -0.002369
   96  SI 1YYYZ   0.000000   0.041252  -0.023878   0.031078   0.001338
   97  SI 1ZZZX   0.000000   0.035638   0.041630  -0.015319  -0.008751
   98  SI 1ZZZY   0.000000   0.041252  -0.023878   0.031078   0.001338
   99  SI 1XXYY   0.011675  -0.000000  -0.000000   0.000000  -0.000000
  100  SI 1XXZZ   0.011675  -0.000000   0.000000   0.000000  -0.000000
  101  SI 1YYZZ   0.011675  -0.000000   0.000000   0.000000  -0.000000
  102  SI 1XXYZ   0.000000   0.023305  -0.013490   0.017557  -0.016219
  103  SI 1YYXZ  -0.000000   0.020133   0.023518  -0.008654   0.106096
  104  SI 1ZZXY   0.000000   0.009213  -0.017270  -0.025499   0.028719
  105  H  2  S    0.333509   0.703477  -0.096751  -0.221738   0.159199
  106  H  2  S    0.008052  -0.006184   0.000850   0.001949  -7.503765
  107  H  2  S    0.003642   0.008059  -0.001108  -0.002540  -4.281580
  108  H  2  S   -0.099018  -0.164395   0.022610   0.051818  -0.844860
  109  H  2  S   -0.019934  -0.022304   0.003068   0.007030   0.052295
  110  H  2  X   -0.010080  -0.013267   0.002629   0.002234  -0.301356
  111  H  2  Y   -0.010080  -0.013019  -0.000266   0.004284   0.592495
  112  H  2  Z   -0.010080  -0.012165   0.002925   0.005602   0.027040
  113  H  2  X   -0.001448  -0.026480  -0.000772   0.019034   0.001957
  114  H  2  Y   -0.001448  -0.027841   0.015111   0.007785   0.143588
  115  H  2  Z   -0.001448  -0.032528  -0.002395   0.000555   0.053991
  116  H  2  X   -0.000212   0.003301  -0.000419  -0.001126   0.038037
  117  H  2  Y   -0.000212   0.003312  -0.000546  -0.001036  -0.043405
  118  H  2  Z   -0.000212   0.003349  -0.000406  -0.000978   0.008116
  119  H  2  X   -0.001633  -0.002009  -0.000003   0.001309  -0.007100
  120  H  2  Y   -0.001633  -0.002095   0.001001   0.000598   0.008923
  121  H  2  Z   -0.001633  -0.002391  -0.000105   0.000141  -0.001213
  122  H  2 XX    0.003264   0.013628  -0.001345  -0.005576   0.130900
  123  H  2 YY    0.003264   0.013791  -0.003249  -0.004228   0.057014
  124  H  2 ZZ    0.003264   0.014352  -0.001151  -0.003362   0.103754
  125  H  2 XY    0.000582   0.003780  -0.001763  -0.002946   0.030293
  126  H  2 XZ    0.000582   0.004628   0.001405  -0.001638   0.125962
  127  H  2 YZ    0.000582   0.004874  -0.001469   0.000398  -0.025269
  128  H  2 XX    0.001168   0.006864  -0.000569  -0.003072   0.026317
  129  H  2 YY    0.001168   0.006980  -0.001919  -0.002116   0.018312
  130  H  2 ZZ    0.001168   0.007378  -0.000431  -0.001501   0.023376
  131  H  2 XY   -0.000101   0.003450  -0.001055  -0.001906   0.001389
  132  H  2 XZ   -0.000101   0.003846   0.000424  -0.001296   0.001874
  133  H  2 YZ   -0.000101   0.003961  -0.000918  -0.000346   0.001107
  134  H  2 XX    0.000528   0.000806  -0.000064  -0.000367   0.000884
  135  H  2 YY    0.000528   0.000820  -0.000233  -0.000248   0.002392
  136  H  2 ZZ    0.000528   0.000870  -0.000047  -0.000171   0.001438
  137  H  2 XY    0.000207   0.000393  -0.000084  -0.000166  -0.000028
  138  H  2 XZ    0.000207   0.000413  -0.000007  -0.000135   0.000024
  139  H  2 YZ    0.000207   0.000419  -0.000077  -0.000085  -0.000058
  140  H  2 XXX   0.000557   0.011758  -0.000989  -0.005227   0.008105
  141  H  2 YYY   0.000557   0.011951  -0.003249  -0.003626  -0.002145
  142  H  2 ZZZ   0.000557   0.012618  -0.000758  -0.002598   0.004339
  143  H  2 XXY   0.000139   0.003837  -0.001150  -0.000790  -0.007074
  144  H  2 XXZ   0.000139   0.004031  -0.000427  -0.000492  -0.013809
  145  H  2 YYX   0.000139   0.003733   0.000068  -0.001653   0.000843
  146  H  2 YYZ   0.000139   0.003983   0.000135  -0.000890   0.004754
  147  H  2 ZZX   0.000139   0.003567  -0.000552  -0.001909  -0.010901
  148  H  2 ZZY   0.000139   0.003623  -0.001207  -0.001444  -0.000254
  149  H  2 XYZ   0.000128  -0.002645   0.000364   0.000834  -0.003450
  150  H  2 XXX  -0.000937  -0.001104   0.000005   0.000703  -0.013360
  151  H  2 YYY  -0.000937  -0.001150   0.000533   0.000329   0.014312
  152  H  2 ZZZ  -0.000937  -0.001305  -0.000049   0.000089  -0.003193
  153  H  2 XXY  -0.000435  -0.000943   0.000307   0.000314   0.006190
  154  H  2 XXZ  -0.000435  -0.001022   0.000010   0.000192  -0.000673
  155  H  2 YYX  -0.000435  -0.000924   0.000088   0.000470  -0.005938
  156  H  2 YYZ  -0.000435  -0.001027   0.000061   0.000156  -0.001953
  157  H  2 ZZX  -0.000435  -0.000939   0.000032   0.000447  -0.005129
  158  H  2 ZZY  -0.000435  -0.000962   0.000302   0.000255   0.005719
  159  H  2 XYZ  -0.000017  -0.000823   0.000113   0.000259  -0.000801
  160  H  3  S    0.333509  -0.457272  -0.364739  -0.459648  -0.082096
  161  H  3  S    0.008052   0.004020   0.003206   0.004041   3.869560
  162  H  3  S    0.003642  -0.005238  -0.004178  -0.005266   2.207936
  163  H  3  S   -0.099018   0.106859   0.085235   0.107415   0.435680
  164  H  3  S   -0.019934   0.014498   0.011564   0.014573  -0.026968
  165  H  3  X    0.010080  -0.009262  -0.004878  -0.008851  -0.212807
  166  H  3  Y    0.010080  -0.009014  -0.007774  -0.006801   0.681044
  167  H  3  Z   -0.010080   0.006718   0.007285   0.009472   0.304158
  168  H  3  X    0.001448  -0.013712  -0.024705  -0.016302  -0.008086
  169  H  3  Y    0.001448  -0.015073  -0.008821  -0.027551   0.133545
  170  H  3  Z   -0.001448   0.027668   0.011503   0.012893   0.022561
  171  H  3  X    0.000212   0.002118   0.001799   0.002149   0.024845
  172  H  3  Y    0.000212   0.002129   0.001672   0.002239  -0.056597
  173  H  3  Z   -0.000212  -0.002229  -0.001694  -0.002122  -0.033169
  174  H  3  X    0.001633  -0.001085  -0.001735  -0.001250  -0.004690
  175  H  3  Y    0.001633  -0.001171  -0.000731  -0.001961   0.011333
  176  H  3  Z   -0.001633   0.001967   0.000901   0.001034   0.006328
  177  H  3 XX    0.003264  -0.008439  -0.008381  -0.008784  -0.072248
  178  H  3 YY    0.003264  -0.008602  -0.006477  -0.010133   0.001639
  179  H  3 ZZ    0.003264  -0.010111  -0.006799  -0.008376  -0.079799
  180  H  3 XY    0.000582  -0.001276  -0.002930  -0.003983   0.038199
  181  H  3 XZ   -0.000582   0.003556   0.003416   0.001330   0.128488
  182  H  3 YZ   -0.000582   0.003802   0.000541   0.003366  -0.022743
  183  H  3 XX    0.001168  -0.004164  -0.004491  -0.004400  -0.014085
  184  H  3 YY    0.001168  -0.004280  -0.003142  -0.005356  -0.006080
  185  H  3 ZZ    0.001168  -0.005350  -0.003370  -0.004110  -0.014903
  186  H  3 XY   -0.000101  -0.001692  -0.002242  -0.002960  -0.000444
  187  H  3 XZ    0.000101   0.002755   0.002468   0.001723   0.001288
  188  H  3 YZ    0.000101   0.002870   0.001127   0.002673   0.000522
  189  H  3 XX    0.000528  -0.000487  -0.000534  -0.000516  -0.000359
  190  H  3 YY    0.000528  -0.000501  -0.000366  -0.000635  -0.001866
  191  H  3 ZZ    0.000528  -0.000635  -0.000394  -0.000480  -0.000205
  192  H  3 XY    0.000207  -0.000227  -0.000227  -0.000293   0.000044
  193  H  3 XZ   -0.000207   0.000282   0.000239   0.000229   0.000047
  194  H  3 YZ   -0.000207   0.000288   0.000169   0.000278  -0.000035
  195  H  3 XXX  -0.000557   0.007145   0.007658   0.007540   0.004838
  196  H  3 YYY  -0.000557   0.007338   0.005398   0.009141  -0.005412
  197  H  3 ZZZ   0.000557  -0.009130  -0.005779  -0.007055  -0.005885
  198  H  3 XXY  -0.000139   0.002494   0.001370   0.002929  -0.000368
  199  H  3 XXZ   0.000139  -0.003013  -0.001480  -0.002324   0.012102
  200  H  3 YYX  -0.000139   0.002389   0.002587   0.002067   0.007549
  201  H  3 YYZ   0.000139  -0.002965  -0.002042  -0.001926  -0.006461
  202  H  3 ZZX  -0.000139   0.001943   0.002492   0.002585  -0.012911
  203  H  3 ZZY  -0.000139   0.002000   0.001837   0.003050  -0.002265
  204  H  3 XYZ   0.000128   0.001720   0.001372   0.001729   0.001779
  205  H  3 XXX   0.000937  -0.000601  -0.000937  -0.000688  -0.008666
  206  H  3 YYY   0.000937  -0.000647  -0.000409  -0.001062   0.019005
  207  H  3 ZZZ  -0.000937   0.001065   0.000499   0.000575   0.011494
  208  H  3 XXY   0.000435  -0.000550  -0.000428  -0.000772   0.007831
  209  H  3 XXZ  -0.000435   0.000764   0.000474   0.000523   0.004125
  210  H  3 YYX   0.000435  -0.000531  -0.000648  -0.000617  -0.004297
  211  H  3 YYZ  -0.000435   0.000769   0.000423   0.000559   0.005405
  212  H  3 ZZX   0.000435  -0.000572  -0.000656  -0.000570  -0.002886
  213  H  3 ZZY   0.000435  -0.000595  -0.000386  -0.000761   0.007962
  214  H  3 XYZ  -0.000017   0.000535   0.000427   0.000538   0.000413
  215  H  4  S    0.333509  -0.165484   0.725212  -0.009513   0.125639
  216  H  4  S    0.008052   0.001455  -0.006375   0.000084  -5.921909
  217  H  4  S    0.003642  -0.001896   0.008308  -0.000109  -3.378988
  218  H  4  S   -0.099018   0.038672  -0.169474   0.002223  -0.666757
  219  H  4  S   -0.019934   0.005247  -0.022993   0.000302   0.041271
  220  H  4  X    0.010080  -0.004515   0.012853  -0.001528   0.025768
  221  H  4  Y   -0.010080   0.001117  -0.013638   0.000832   0.631038
  222  H  4  Z    0.010080  -0.003413   0.013149   0.001840   0.354165
  223  H  4  X    0.001448   0.001420   0.031820   0.007042  -0.035145
  224  H  4  Y   -0.001448   0.017223  -0.027515  -0.003221   0.139216
  225  H  4  Z    0.001448  -0.004628   0.030197  -0.011437   0.016889
  226  H  4  X    0.000212   0.000715  -0.003439  -0.000014  -0.010697
  227  H  4  Y   -0.000212  -0.000864   0.003405  -0.000016  -0.049147
  228  H  4  Z    0.000212   0.000764  -0.003426   0.000133  -0.040618
  229  H  4  X    0.001633   0.000011   0.002357   0.000441   0.001802
  230  H  4  Y   -0.001633   0.001167  -0.002085  -0.000199   0.009972
  231  H  4  Z    0.001633  -0.000371   0.002254  -0.000727   0.007688
  232  H  4 XX    0.003264  -0.002289   0.014591   0.000703   0.085776
  233  H  4 YY    0.003264  -0.004523   0.014075   0.000245   0.031484
  234  H  4 ZZ    0.003264  -0.003014   0.014396  -0.001512   0.112922
  235  H  4 XY   -0.000582   0.001436  -0.004500  -0.001939   0.039625
  236  H  4 XZ    0.000582   0.000843   0.004986  -0.000714   0.127062
  237  H  4 YZ   -0.000582   0.002531  -0.004207   0.001405  -0.015936
  238  H  4 XX    0.001168  -0.000965   0.007460   0.000536   0.018870
  239  H  4 YY    0.001168  -0.002549   0.007094   0.000211   0.012988
  240  H  4 ZZ    0.001168  -0.001479   0.007322  -0.001034   0.021811
  241  H  4 XY    0.000101   0.001067  -0.003839  -0.000882  -0.000774
  242  H  4 XZ   -0.000101  -0.000003   0.004065  -0.000356   0.001619
  243  H  4 YZ    0.000101   0.001578  -0.003702   0.000678  -0.001056
  244  H  4 XX    0.000528  -0.000108   0.000879   0.000068   0.001056
  245  H  4 YY    0.000528  -0.000306   0.000833   0.000027   0.002163
  246  H  4 ZZ    0.000528  -0.000173   0.000862  -0.000128   0.000502
  247  H  4 XY   -0.000207   0.000106  -0.000419  -0.000043   0.000057
  248  H  4 XZ    0.000207  -0.000050   0.000431  -0.000021   0.000034
  249  H  4 YZ   -0.000207   0.000132  -0.000412   0.000038   0.000026
  250  H  4 XXX  -0.000557   0.001678  -0.012764  -0.000894  -0.003965
  251  H  4 YYY   0.000557  -0.004330   0.012152   0.000350  -0.003567
  252  H  4 ZZZ  -0.000557   0.002538  -0.012534   0.001735  -0.007730
  253  H  4 XXY   0.000139  -0.001614   0.003747  -0.000165   0.000768
  254  H  4 XXZ  -0.000139   0.001094  -0.003858   0.000770   0.010967
  255  H  4 YYX  -0.000139   0.000185  -0.004077  -0.000128  -0.006585
  256  H  4 YYZ  -0.000139   0.000434  -0.004010   0.000635  -0.002674
  257  H  4 ZZX  -0.000139   0.000631  -0.003982  -0.000646   0.013875
  258  H  4 ZZY   0.000139  -0.001400   0.003804   0.000489  -0.006052
  259  H  4 XYZ   0.000128   0.000622  -0.002727   0.000036  -0.002722
  260  H  4 XXX   0.000937  -0.000005   0.001289   0.000231   0.003979
  261  H  4 YYY  -0.000937   0.000625  -0.001146  -0.000104   0.016355
  262  H  4 ZZZ   0.000937  -0.000207   0.001235  -0.000383   0.014145
  263  H  4 XXY  -0.000435   0.000379  -0.000966  -0.000072   0.006565
  264  H  4 XXZ   0.000435  -0.000165   0.001012  -0.000177   0.005392
  265  H  4 YYX   0.000435  -0.000121   0.001025   0.000125   0.002347
  266  H  4 YYZ   0.000435  -0.000224   0.000998  -0.000189   0.006333
  267  H  4 ZZX   0.000435  -0.000081   0.001034   0.000078   0.000936
  268  H  4 ZZY  -0.000435   0.000398  -0.000961  -0.000013   0.007035
  269  H  4 XYZ  -0.000017   0.000194  -0.000849   0.000011  -0.000632
  270  H  5  S    0.333509  -0.080722  -0.263723   0.690900  -0.202742
  271  H  5  S    0.008052   0.000710   0.002318  -0.006073   9.556114
  272  H  5  S    0.003642  -0.000925  -0.003021   0.007915   5.452632
  273  H  5  S   -0.099018   0.018864   0.061629  -0.161456   1.075937
  274  H  5  S   -0.019934   0.002559   0.008361  -0.021905  -0.066598
  275  H  5  X   -0.010080  -0.000510   0.005346  -0.012613   0.114318
  276  H  5  Y    0.010080  -0.002888  -0.006130   0.011917   0.542488
  277  H  5  Z    0.010080  -0.002034  -0.002939   0.013234  -0.022966
  278  H  5  X   -0.001448   0.014188   0.007887  -0.028295  -0.045188
  279  H  5  Y    0.001448   0.004455  -0.003583   0.032116   0.149260
  280  H  5  Z    0.001448  -0.000232  -0.021089   0.024886   0.059663
  281  H  5  X   -0.000212  -0.000468  -0.001221   0.003260  -0.023889
  282  H  5  Y    0.000212   0.000319   0.001187  -0.003291  -0.035955
  283  H  5  Z    0.000212   0.000356   0.001327  -0.003233   0.015565
  284  H  5  X   -0.001633   0.000935   0.000624  -0.002118   0.004211
  285  H  5  Y    0.001633   0.000243  -0.000352   0.002359   0.007562
  286  H  5  Z    0.001633  -0.000053  -0.001459   0.001902  -0.002574
  287  H  5 XX    0.003264  -0.002900  -0.004864   0.013658  -0.144428
  288  H  5 YY    0.003264  -0.000666  -0.004348   0.014116  -0.090136
  289  H  5 ZZ    0.003264  -0.001227  -0.006447   0.013250  -0.136877
  290  H  5 XY   -0.000582   0.001067  -0.000193  -0.004990   0.028866
  291  H  5 XZ   -0.000582   0.001915   0.002976  -0.003682   0.124535
  292  H  5 YZ    0.000582   0.001459  -0.002197   0.004373  -0.013410
  293  H  5 XX    0.001168  -0.001735  -0.002400   0.006936  -0.031102
  294  H  5 YY    0.001168  -0.000151  -0.002034   0.007260  -0.025219
  295  H  5 ZZ    0.001168  -0.000549  -0.003522   0.006646  -0.030283
  296  H  5 XY    0.000101   0.000692   0.000542  -0.003985   0.001720
  297  H  5 XZ    0.000101   0.001087   0.002021  -0.003374   0.002204
  298  H  5 YZ   -0.000101   0.000487  -0.001657   0.003697  -0.001641
  299  H  5 XX    0.000528  -0.000211  -0.000280   0.000816  -0.001581
  300  H  5 YY    0.000528  -0.000013  -0.000235   0.000856  -0.002688
  301  H  5 ZZ    0.000528  -0.000063  -0.000421   0.000780  -0.001735
  302  H  5 XY   -0.000207   0.000060   0.000108  -0.000417  -0.000041
  303  H  5 XZ   -0.000207   0.000081   0.000185  -0.000385   0.000011
  304  H  5 YZ    0.000207   0.000001  -0.000166   0.000402   0.000049
  305  H  5 XXX   0.000557  -0.002936  -0.004118   0.011873  -0.007232
  306  H  5 YYY  -0.000557   0.000283   0.003505  -0.012417  -0.000300
  307  H  5 ZZZ  -0.000557   0.000950   0.005996  -0.011388   0.006184
  308  H  5 XXY  -0.000139  -0.000270   0.001228  -0.003885  -0.005939
  309  H  5 XXZ  -0.000139  -0.000077   0.001950  -0.003586  -0.012674
  310  H  5 YYX   0.000139  -0.001159  -0.001558   0.003592   0.000121
  311  H  5 YYZ  -0.000139   0.000583   0.002103  -0.003451   0.000967
  312  H  5 ZZX   0.000139  -0.000993  -0.000938   0.003848   0.011865
  313  H  5 ZZY  -0.000139   0.000224   0.000761  -0.004005  -0.004042
  314  H  5 XYZ   0.000128   0.000304   0.000992  -0.002598   0.004393
  315  H  5 XXX  -0.000937   0.000497   0.000346  -0.001161   0.008672
  316  H  5 YYY   0.000937   0.000122  -0.000203   0.001288   0.011661
  317  H  5 ZZZ   0.000937  -0.000033  -0.000785   0.001047  -0.005844
  318  H  5 XXY   0.000435  -0.000014  -0.000230   0.001014   0.004923
  319  H  5 XXZ   0.000435  -0.000093  -0.000528   0.000891  -0.001939
  320  H  5 YYX  -0.000435   0.000271   0.000290  -0.000962   0.003989
  321  H  5 YYZ   0.000435  -0.000034  -0.000514   0.000904  -0.002880
  322  H  5 ZZX  -0.000435   0.000286   0.000346  -0.000938   0.003179
  323  H  5 ZZY   0.000435   0.000031  -0.000273   0.001003   0.004792
  324  H  5 XYZ  -0.000017   0.000094   0.000309  -0.000808   0.001020

                      6          7          8          9         10
                   -1.3454    -1.3454    -1.2871    -1.1368     0.6514
                     A          A          A          A          A   
    1  SI 1  S    0.000000  -0.000000   0.279562   1.182729   0.000000
    2  SI 1  S    0.000000  -0.000000   5.884427  14.126969   0.000000
    3  SI 1  S   -0.000000   0.000000 -24.067700 -29.066984  -0.000000
    4  SI 1  S    0.000000  -0.000000  38.721064  55.492289   0.000001
    5  SI 1  S    0.000000  -0.000000 146.976158 196.754778   0.000003
    6  SI 1  X    0.362075  -3.184753   0.000000  -0.000004  -0.440811
    7  SI 1  Y    0.892716  -0.357978  -0.000000   0.000008  78.673802
    8  SI 1  Z   -3.093445  -0.476068  -0.000000   0.000008  19.543669
    9  SI 1  X    0.030313  -0.266625   0.000000  -0.000000  -0.032739
   10  SI 1  Y    0.074738  -0.029970  -0.000000   0.000001   5.843085
   11  SI 1  Z   -0.258981  -0.039856  -0.000000   0.000001   1.451504
   12  SI 1  X   -0.064837   0.570297  -0.000000   0.000001   0.124380
   13  SI 1  Y   -0.159859   0.064103   0.000000  -0.000002 -22.198686
   14  SI 1  Z    0.553946   0.085250   0.000000  -0.000002  -5.514463
   15  SI 1  X   -0.227907   2.004638  -0.000000   0.000003   0.171560
   16  SI 1  Y   -0.561919   0.225329   0.000000  -0.000006 -30.619170
   17  SI 1  Z    1.947164   0.299660   0.000000  -0.000006  -7.606229
   18  SI 1  X    0.795203  -6.994488   0.000000  -0.000005   0.008790
   19  SI 1  Y    1.960621  -0.786206  -0.000000   0.000010  -1.568762
   20  SI 1  Z   -6.793954  -1.045561  -0.000000   0.000011  -0.389702
   21  SI 1 XX    0.000000   0.000000   0.000016   0.007828   0.000000
   22  SI 1 YY   -0.000000   0.000000   0.000016   0.007828   0.000000
   23  SI 1 ZZ   -0.000000   0.000000   0.000016   0.007828   0.000000
   24  SI 1 XY   -0.044851  -0.006902   0.000000  -0.000000  -0.057880
   25  SI 1 XZ    0.012943  -0.005190   0.000000  -0.000000  -0.232997
   26  SI 1 YZ    0.005250  -0.046175  -0.000000   0.000000   0.001305
   27  SI 1 XX    0.000000   0.000000   2.324016   4.450114   0.000000
   28  SI 1 YY    0.000000   0.000000   2.324016   4.450114   0.000000
   29  SI 1 ZZ    0.000000   0.000000   2.324016   4.450114   0.000000
   30  SI 1 XY    0.017416   0.002680   0.000000   0.000000  -0.123684
   31  SI 1 XZ   -0.005026   0.002015   0.000000   0.000000  -0.497895
   32  SI 1 YZ   -0.002038   0.017930  -0.000000  -0.000000   0.002790
   33  SI 1 XX   -0.000000   0.000000 -10.763487   2.445546   0.000000
   34  SI 1 YY   -0.000000   0.000000 -10.763487   2.445546   0.000000
   35  SI 1 ZZ    0.000000   0.000000 -10.763487   2.445546   0.000000
   36  SI 1 XY   -1.607587  -0.247401  -0.000000   0.000003   4.033030
   37  SI 1 XZ    0.463923  -0.186032  -0.000000   0.000003  16.235121
   38  SI 1 YZ    0.188161  -1.655038   0.000000  -0.000001  -0.090966
   39  SI 1 XX   -0.000000   0.000000 -30.004193 -35.624904  -0.000001
   40  SI 1 YY   -0.000000   0.000000 -30.004193 -35.624904  -0.000001
   41  SI 1 ZZ   -0.000000   0.000000 -30.004193 -35.624904  -0.000001
   42  SI 1 XY   -3.968545  -0.610742  -0.000000   0.000006   0.373116
   43  SI 1 XZ    1.145255  -0.459246  -0.000000   0.000006   1.501992
   44  SI 1 YZ    0.464501  -4.085683   0.000000  -0.000003  -0.008416
   45  SI 1 XXX   0.021120  -0.185765   0.000000  -0.000000  -0.004070
   46  SI 1 YYY   0.052072  -0.020881  -0.000000   0.000001   0.726415
   47  SI 1 ZZZ  -0.180439  -0.027769  -0.000000   0.000001   0.180452
   48  SI 1 XXY   0.022369  -0.008970  -0.000000   0.000000   0.932435
   49  SI 1 XXZ  -0.077513  -0.011929  -0.000000   0.000000   0.231630
   50  SI 1 YYX   0.009073  -0.079801   0.000000  -0.000000  -0.005224
   51  SI 1 YYZ  -0.077513  -0.011929  -0.000000   0.000000   0.231630
   52  SI 1 ZZX   0.009073  -0.079801   0.000000  -0.000000  -0.005224
   53  SI 1 ZZY   0.022369  -0.008970  -0.000000   0.000000   0.932435
   54  SI 1 XYZ   0.000000  -0.000000   0.039973  -0.067979  -0.000000
   55  SI 1 XXX   0.053004  -0.466213   0.000000  -0.000001   0.036176
   56  SI 1 YYY   0.130684  -0.052404  -0.000000   0.000002  -6.456449
   57  SI 1 ZZZ  -0.452847  -0.069691  -0.000000   0.000002  -1.603872
   58  SI 1 XXY   0.158869  -0.063706  -0.000000   0.000001  -2.885119
   59  SI 1 XXZ  -0.550512  -0.084722  -0.000000   0.000001  -0.716704
   60  SI 1 YYX   0.064435  -0.566761   0.000000  -0.000001   0.016165
   61  SI 1 YYZ  -0.550512  -0.084722  -0.000000   0.000001  -0.716704
   62  SI 1 ZZX   0.064435  -0.566761   0.000000  -0.000001   0.016165
   63  SI 1 ZZY   0.158869  -0.063706  -0.000000   0.000001  -2.885119
   64  SI 1 XYZ   0.000000  -0.000000  -1.234115  -3.663679  -0.000000
   65  SI 1 XXX   0.011792  -0.103721   0.000000  -0.000001   0.046850
   66  SI 1 YYY   0.029074  -0.011659  -0.000000   0.000002  -8.361540
   67  SI 1 ZZZ  -0.100748  -0.015505  -0.000000   0.000002  -2.077123
   68  SI 1 XXY   0.267541  -0.107284  -0.000000   0.000002  -2.607093
   69  SI 1 XXZ  -0.927084  -0.142674  -0.000000   0.000002  -0.647638
   70  SI 1 YYX   0.108511  -0.954449   0.000000  -0.000001   0.014608
   71  SI 1 YYZ  -0.927084  -0.142674  -0.000000   0.000002  -0.647638
   72  SI 1 ZZX   0.108511  -0.954449   0.000000  -0.000001   0.014608
   73  SI 1 ZZY   0.267541  -0.107284  -0.000000   0.000002  -2.607093
   74  SI 1 XYZ   0.000000   0.000000   2.544990   5.964672   0.000000
   75  SI 1XXXX   0.000000   0.000000   0.403843   0.171268   0.000000
   76  SI 1YYYY  -0.000000  -0.000000   0.403843   0.171268   0.000000
   77  SI 1ZZZZ   0.000000  -0.000000   0.403843   0.171268   0.000000
   78  SI 1XXXY  -0.059823  -0.009206   0.000000  -0.000000  -0.058815
   79  SI 1XXXZ   0.017264  -0.006923   0.000000  -0.000000  -0.236762
   80  SI 1YYYX  -0.059823  -0.009206   0.000000  -0.000000  -0.058815
   81  SI 1YYYZ   0.007002  -0.061588  -0.000000   0.000000   0.001327
   82  SI 1ZZZX   0.017264  -0.006923   0.000000  -0.000000  -0.236762
   83  SI 1ZZZY   0.007002  -0.061588  -0.000000   0.000000   0.001327
   84  SI 1XXYY   0.000000  -0.000000   0.181651  -0.062083  -0.000000
   85  SI 1XXZZ   0.000000  -0.000000   0.181651  -0.062083  -0.000000
   86  SI 1YYZZ   0.000000  -0.000000   0.181651  -0.062083  -0.000000
   87  SI 1XXYZ   0.000750  -0.006597  -0.000000   0.000000  -0.000704
   88  SI 1YYXZ   0.001849  -0.000742   0.000000  -0.000000   0.125593
   89  SI 1ZZXY  -0.006408  -0.000986   0.000000  -0.000000   0.031199
   90  SI 1XXXX   0.000000  -0.000000   2.787388   0.485571   0.000000
   91  SI 1YYYY   0.000000  -0.000000   2.787388   0.485571   0.000000
   92  SI 1ZZZZ  -0.000000  -0.000000   2.787388   0.485571  -0.000000
   93  SI 1XXXY   0.008750   0.001347   0.000000  -0.000000  -1.102556
   94  SI 1XXXZ  -0.002525   0.001013   0.000000  -0.000000  -4.438384
   95  SI 1YYYX   0.008750   0.001347   0.000000  -0.000000  -1.102556
   96  SI 1YYYZ  -0.001024   0.009008  -0.000000   0.000000   0.024868
   97  SI 1ZZZX  -0.002525   0.001013   0.000000  -0.000000  -4.438384
   98  SI 1ZZZY  -0.001024   0.009008  -0.000000   0.000000   0.024868
   99  SI 1XXYY   0.000000  -0.000000   1.300159  -0.664840  -0.000000
  100  SI 1XXZZ   0.000000  -0.000000   1.300159  -0.664840  -0.000000
  101  SI 1YYZZ  -0.000000  -0.000000   1.300159  -0.664840  -0.000000
  102  SI 1XXYZ   0.012416  -0.109211  -0.000000  -0.000000   0.006224
  103  SI 1YYXZ   0.030613  -0.012276  -0.000000   0.000000  -1.110864
  104  SI 1ZZXY  -0.106080  -0.016325   0.000000   0.000000  -0.275954
  105  H  2  S   -0.084637  -0.184993   0.108909  -0.656829  -0.441453
  106  H  2  S    3.989301   8.719531  -1.805101  -4.860699  -1.713572
  107  H  2  S    2.276259   4.975285 -28.994821 -47.071951 -10.772049
  108  H  2  S    0.449161   0.981745   1.179790   2.965895  -3.775505
  109  H  2  S   -0.027802  -0.060768   0.028007  -0.395409  -1.003262
  110  H  2  X    0.187937  -0.585634   4.193518   7.267686   1.649406
  111  H  2  Y    0.320914   0.122748   4.193518   7.267687   2.201662
  112  H  2  Z   -0.678007   0.093155   4.193518   7.267687   1.788907
  113  H  2  X    0.003352  -0.150554  -0.352142  -1.285804   0.486576
  114  H  2  Y    0.024423  -0.038311  -0.352142  -1.285804  -0.303236
  115  H  2  Z   -0.133857  -0.043000  -0.352142  -1.285804   0.287068
  116  H  2  X   -0.022748   0.041066   0.011731   0.036091  -0.502150
  117  H  2  Y   -0.034864  -0.023477   0.011731   0.036091  -0.355426
  118  H  2  Z    0.056151  -0.020781   0.011731   0.036091  -0.465088
  119  H  2  X    0.004271  -0.008525   0.008581   0.010370   0.186931
  120  H  2  Y    0.006655   0.004173   0.008581   0.010370   0.151904
  121  H  2  Z   -0.011251   0.003643   0.008581   0.010370   0.178083
  122  H  2 XX   -0.071883  -0.074753  -0.344642  -1.727342  -1.529158
  123  H  2 YY   -0.082875  -0.133309  -0.344642  -1.727343  -1.735322
  124  H  2 ZZ   -0.000304  -0.130862  -0.344642  -1.727343  -1.581235
  125  H  2 XY   -0.128385  -0.014123  -0.170834  -0.154450  -0.035559
  126  H  2 XZ    0.040623  -0.009117  -0.170834  -0.154450   0.005673
  127  H  2 YZ    0.018125  -0.128968  -0.170834  -0.154450  -0.049494
  128  H  2 XX   -0.014239  -0.022200  -0.013091  -0.135341  -0.468006
  129  H  2 YY   -0.015430  -0.028544  -0.013091  -0.135341  -0.306744
  130  H  2 ZZ   -0.006484  -0.028279  -0.013091  -0.135341  -0.427271
  131  H  2 XY   -0.001307  -0.001507  -0.002143   0.031867  -0.199362
  132  H  2 XZ   -0.000451  -0.001482  -0.002143   0.031867  -0.188525
  133  H  2 YZ   -0.000565  -0.002089  -0.002143   0.031867  -0.203024
  134  H  2 XX   -0.000423  -0.002606  -0.003312  -0.011457  -0.013244
  135  H  2 YY   -0.000199  -0.001411  -0.003312  -0.011457  -0.022412
  136  H  2 ZZ   -0.001884  -0.001461  -0.003312  -0.011457  -0.015560
  137  H  2 XY   -0.000046   0.000044   0.000451  -0.001248   0.010822
  138  H  2 XZ    0.000046   0.000047   0.000451  -0.001248   0.006768
  139  H  2 YZ    0.000033  -0.000018   0.000451  -0.001248   0.012192
  140  H  2 XXX  -0.004627   0.001313   0.080958   0.190966   0.673036
  141  H  2 YYY  -0.006152  -0.006810   0.080958   0.190966   0.704622
  142  H  2 ZZZ   0.005303  -0.006471   0.080958   0.190966   0.681015
  143  H  2 XXY   0.011911  -0.001552   0.060660   0.116311   0.246094
  144  H  2 XXZ   0.000013  -0.001905   0.060660   0.116311   0.071969
  145  H  2 YYX   0.013089   0.004722   0.060660   0.116311   0.448791
  146  H  2 YYZ   0.002775   0.012807   0.060660   0.116311   0.507641
  147  H  2 ZZX  -0.007657   0.004108   0.060660   0.116311   0.123171
  148  H  2 ZZY  -0.006073   0.012545   0.060660   0.116311   0.356145
  149  H  2 XYZ   0.001834   0.004008   0.036569   0.035915  -0.313107
  150  H  2 XXX   0.007961  -0.013446   0.016037   0.027146   0.339940
  151  H  2 YYY   0.012077   0.008483   0.016037   0.027146   0.281598
  152  H  2 ZZZ  -0.018847   0.007567   0.016037   0.027146   0.325203
  153  H  2 XXY   0.004387   0.003993   0.004942   0.007529   0.127681
  154  H  2 XXZ  -0.007736   0.003634   0.004942   0.007529   0.159956
  155  H  2 YYX   0.002583  -0.005619   0.004942   0.007529   0.134837
  156  H  2 YYZ  -0.007927   0.002619   0.004942   0.007529   0.123928
  157  H  2 ZZX   0.004013  -0.005576   0.004942   0.007529   0.161764
  158  H  2 ZZY   0.005627   0.003021   0.004942   0.007529   0.118581
  159  H  2 XYZ   0.000426   0.000931  -0.003501  -0.006342   0.015196
  160  H  3  S   -0.200157   0.141164   0.108909  -0.656828   0.264977
  161  H  3  S    9.434304  -6.653694  -1.805102  -4.860688   1.028552
  162  H  3  S    5.383128  -3.796538 -28.994821 -47.071945   6.465798
  163  H  3  S    1.062222  -0.749149   1.179790   2.965895   2.266204
  164  H  3  S   -0.065749   0.046371   0.028007  -0.395409   0.602196
  165  H  3  X   -0.139138  -0.635969  -4.193518  -7.267687   0.988807
  166  H  3  Y   -0.006160   0.072413  -4.193519  -7.267685   1.541063
  167  H  3  Z   -0.545336  -0.281423   4.193518   7.267688  -0.855460
  168  H  3  X    0.040449  -0.144845   0.352142   1.285804   0.293821
  169  H  3  Y    0.061519  -0.032602   0.352142   1.285804  -0.495992
  170  H  3  Z   -0.148904  -0.000516  -0.352142  -1.285804  -0.484528
  171  H  3  X    0.025978   0.048565  -0.011731  -0.036091  -0.301737
  172  H  3  Y    0.013862  -0.015979  -0.011731  -0.036091  -0.155013
  173  H  3  Z    0.036386   0.035022   0.011731   0.036091   0.337165
  174  H  3  X   -0.004629  -0.009895  -0.008581  -0.010370   0.112281
  175  H  3  Y   -0.002245   0.002803  -0.008581  -0.010370   0.077254
  176  H  3  Z   -0.007641  -0.006550   0.008581   0.010370  -0.120739
  177  H  3 XX   -0.144759   0.041413  -0.344642  -1.727343   0.917400
  178  H  3 YY   -0.133767   0.099968  -0.344642  -1.727342   1.123564
  179  H  3 ZZ   -0.088180   0.117245  -0.344642  -1.727343   0.867620
  180  H  3 XY   -0.124600  -0.024810  -0.170834  -0.154450   0.043152
  181  H  3 XZ    0.031292  -0.010553   0.170834   0.154450   0.025336
  182  H  3 YZ    0.008793  -0.130404   0.170834   0.154450  -0.029831
  183  H  3 XX   -0.030940   0.015247  -0.013091  -0.135342   0.281274
  184  H  3 YY   -0.029750   0.021591  -0.013091  -0.135342   0.120013
  185  H  3 ZZ   -0.024810   0.023463  -0.013091  -0.135342   0.320212
  186  H  3 XY   -0.002185   0.000970  -0.002143   0.031867   0.125396
  187  H  3 XZ    0.001712  -0.001149   0.002143  -0.031867  -0.107396
  188  H  3 YZ    0.001598  -0.001756   0.002143  -0.031867  -0.121895
  189  H  3 XX   -0.001516   0.002307  -0.003312  -0.011457   0.007929
  190  H  3 YY   -0.001740   0.001113  -0.003312  -0.011457   0.017097
  191  H  3 ZZ   -0.002670   0.000760  -0.003312  -0.011457   0.005716
  192  H  3 XY   -0.000012  -0.000053   0.000451  -0.001248  -0.008640
  193  H  3 XZ   -0.000039   0.000034  -0.000451   0.001248   0.001906
  194  H  3 YZ   -0.000051  -0.000031  -0.000451   0.001248   0.007330
  195  H  3 XXX   0.007441   0.003170  -0.080958  -0.190966   0.403912
  196  H  3 YYY   0.005916  -0.004953  -0.080958  -0.190966   0.435498
  197  H  3 ZZZ   0.000408   0.007350   0.080958   0.190966  -0.396285
  198  H  3 XXY  -0.012861  -0.005364  -0.060660  -0.116311   0.239360
  199  H  3 XXZ   0.006292   0.002875   0.060660   0.116311   0.049868
  200  H  3 YYX  -0.011683   0.000910  -0.060660  -0.116311   0.442058
  201  H  3 YYZ   0.003531  -0.011837   0.060660   0.116311  -0.385804
  202  H  3 ZZX  -0.000230   0.005251  -0.060660  -0.116311  -0.098811
  203  H  3 ZZY   0.001354   0.013688  -0.060660  -0.116311   0.134163
  204  H  3 XYZ   0.004337  -0.003059   0.036569   0.035915   0.187939
  205  H  3 XXX  -0.009375  -0.016114  -0.016037  -0.027146   0.204175
  206  H  3 YYY  -0.005258   0.005816  -0.016037  -0.027146   0.145833
  207  H  3 ZZZ  -0.011815  -0.012286   0.016037   0.027146  -0.218263
  208  H  3 XXY  -0.001677   0.003060  -0.004942  -0.007529   0.059553
  209  H  3 XXZ  -0.005017  -0.005596   0.004942   0.007529  -0.113163
  210  H  3 YYX  -0.003481  -0.006552  -0.004942  -0.007529   0.066708
  211  H  3 YYZ  -0.004826  -0.004582   0.004942   0.007529  -0.077135
  212  H  3 ZZX  -0.004271  -0.006851  -0.004942  -0.007529   0.111435
  213  H  3 ZZY  -0.002657   0.001746  -0.004942  -0.007529   0.068252
  214  H  3 XYZ   0.001007  -0.000710  -0.003501  -0.006342  -0.009121
  215  H  4  S    0.166823   0.152036   0.108909  -0.656828  -0.268957
  216  H  4  S   -7.863128  -7.166132  -1.805101  -4.860688  -1.044003
  217  H  4  S   -4.486630  -4.088930 -28.994821 -47.071945  -6.562928
  218  H  4  S   -0.885321  -0.806846   1.179790   2.965895  -2.300246
  219  H  4  S    0.054799   0.049942   0.028007  -0.395409  -0.611243
  220  H  4  X    0.282325  -0.623483  -4.193518  -7.267687  -1.009861
  221  H  4  Y    0.032122  -0.264315   4.193518   7.267688   1.555963
  222  H  4  Z   -0.583619   0.055306  -4.193518  -7.267685  -0.870361
  223  H  4  X   -0.007353  -0.146261   0.352142   1.285804  -0.289367
  224  H  4  Y    0.057177   0.005589  -0.352142  -1.285804  -0.491644
  225  H  4  Z   -0.144562  -0.038707   0.352142   1.285804  -0.488875
  226  H  4  X   -0.036810   0.046704  -0.011731  -0.036091   0.304622
  227  H  4  Y    0.008159   0.034186   0.011731   0.036091  -0.159533
  228  H  4  Z    0.042090  -0.015142  -0.011731  -0.036091   0.341685
  229  H  4  X    0.006840  -0.009555  -0.008581  -0.010370  -0.113575
  230  H  4  Y   -0.001203  -0.006359   0.008581   0.010370   0.078938
  231  H  4  Z   -0.008683   0.002613  -0.008581  -0.010370  -0.122423
  232  H  4 XX    0.134403   0.049683  -0.344642  -1.727343  -0.933496
  233  H  4 YY    0.108410   0.123069  -0.344642  -1.727343  -1.137363
  234  H  4 ZZ    0.062823   0.105792  -0.344642  -1.727342  -0.881419
  235  H  4 XY   -0.125692  -0.015203   0.170834   0.154450   0.043595
  236  H  4 XZ    0.032384  -0.020159  -0.170834  -0.154450   0.024893
  237  H  4 YZ    0.020817  -0.130048   0.170834   0.154450   0.029660
  238  H  4 XX    0.027278   0.016971  -0.013091  -0.135342  -0.283689
  239  H  4 YY    0.024461   0.024923  -0.013091  -0.135342  -0.124224
  240  H  4 ZZ    0.019522   0.023051  -0.013091  -0.135342  -0.324424
  241  H  4 XY   -0.001931  -0.001257   0.002143  -0.031867   0.127226
  242  H  4 XZ    0.001459   0.001078  -0.002143   0.031867  -0.109225
  243  H  4 YZ   -0.001189  -0.001839   0.002143  -0.031867   0.123564
  244  H  4 XX    0.000983   0.002381  -0.003312  -0.011457  -0.008151
  245  H  4 YY    0.001513   0.000884  -0.003312  -0.011457  -0.017217
  246  H  4 ZZ    0.002443   0.001237  -0.003312  -0.011457  -0.005836
  247  H  4 XY   -0.000021   0.000034  -0.000451   0.001248  -0.008750
  248  H  4 XZ   -0.000029  -0.000053   0.000451  -0.001248   0.002016
  249  H  4 YZ    0.000058  -0.000028  -0.000451   0.001248  -0.007379
  250  H  4 XXX  -0.008109   0.002710  -0.080958  -0.190966  -0.410334
  251  H  4 YYY   0.004504   0.007471   0.080958   0.190966   0.441568
  252  H  4 ZZZ   0.001821  -0.005074  -0.080958  -0.190966  -0.402355
  253  H  4 XXY  -0.013730   0.002282   0.060660   0.116311   0.244367
  254  H  4 XXZ   0.007162  -0.004771  -0.060660  -0.116311   0.044862
  255  H  4 YYX   0.010945   0.005582  -0.060660  -0.116311  -0.444806
  256  H  4 YYZ   0.000631   0.013667  -0.060660  -0.116311  -0.385956
  257  H  4 ZZX  -0.000508   0.001241  -0.060660  -0.116311   0.096063
  258  H  4 ZZY   0.004253  -0.011815   0.060660   0.116311   0.134315
  259  H  4 XYZ  -0.003615  -0.003294   0.036569   0.035915  -0.190762
  260  H  4 XXX   0.012964  -0.015452  -0.016037  -0.027146  -0.206587
  261  H  4 YYY  -0.003229  -0.012032   0.016037   0.027146   0.148895
  262  H  4 ZZZ  -0.013844   0.005561  -0.016037  -0.027146  -0.221325
  263  H  4 XXY  -0.000707  -0.005469   0.004942   0.007529   0.060688
  264  H  4 XXZ  -0.005986   0.002932  -0.004942  -0.007529  -0.114298
  265  H  4 YYX   0.004974  -0.006577  -0.004942  -0.007529  -0.067763
  266  H  4 YYZ  -0.005536   0.001661  -0.004942  -0.007529  -0.078671
  267  H  4 ZZX   0.005763  -0.006278  -0.004942  -0.007529  -0.112491
  268  H  4 ZZY  -0.001947  -0.004497   0.004942   0.007529   0.069789
  269  H  4 XYZ  -0.000839  -0.000765  -0.003501  -0.006342   0.009258
  270  H  5  S    0.117971  -0.108207   0.108909  -0.656823   0.445433
  271  H  5  S   -5.560478   5.100295  -1.805102  -4.860658   1.729023
  272  H  5  S   -3.172758   2.910182 -28.994821 -47.071928  10.869176
  273  H  5  S   -0.626063   0.574250   1.179790   2.965898   3.809547
  274  H  5  S    0.038752  -0.035545   0.028007  -0.395409   1.012308
  275  H  5  X   -0.044749  -0.673819   4.193518   7.267687  -1.670460
  276  H  5  Y    0.359197  -0.213980  -4.193518  -7.267686   2.216562
  277  H  5  Z   -0.639725  -0.243573  -4.193518  -7.267686   1.803807
  278  H  5  X    0.029743  -0.140553  -0.352142  -1.285804  -0.482123
  279  H  5  Y    0.020081  -0.000120   0.352142   1.285804  -0.298889
  280  H  5  Z   -0.138199  -0.004809   0.352142   1.285804   0.291416
  281  H  5  X    0.011917   0.054203   0.011731   0.036091   0.505036
  282  H  5  Y   -0.040567   0.026687  -0.011731  -0.036091  -0.359947
  283  H  5  Z    0.050448   0.029384  -0.011731  -0.036091  -0.469608
  284  H  5  X   -0.002060  -0.010925   0.008581   0.010370  -0.188225
  285  H  5  Y    0.007697  -0.004990  -0.008581  -0.010370   0.153588
  286  H  5  Z   -0.010209  -0.005520  -0.008581  -0.010370   0.179767
  287  H  5 XX    0.082240  -0.016343  -0.344642  -1.727343   1.545254
  288  H  5 YY    0.108232  -0.089729  -0.344642  -1.727343   1.749120
  289  H  5 ZZ    0.025661  -0.092175  -0.344642  -1.727343   1.595034
  290  H  5 XY   -0.127293  -0.023730   0.170834   0.154450  -0.036002
  291  H  5 XZ    0.041715  -0.018723   0.170834   0.154450   0.005229
  292  H  5 YZ    0.011486  -0.131484  -0.170834  -0.154450   0.049323
  293  H  5 XX    0.017902  -0.010018  -0.013091  -0.135342   0.470421
  294  H  5 YY    0.020719  -0.017970  -0.013091  -0.135342   0.310956
  295  H  5 ZZ    0.011772  -0.018235  -0.013091  -0.135342   0.431483
  296  H  5 XY   -0.001561   0.000719   0.002143  -0.031867  -0.201192
  297  H  5 XZ   -0.000704   0.000745   0.002143  -0.031867  -0.190354
  298  H  5 YZ    0.000974  -0.001506  -0.002143   0.031867   0.204693
  299  H  5 XX    0.000956  -0.002083  -0.003312  -0.011457   0.013466
  300  H  5 YY    0.000426  -0.000586  -0.003312  -0.011457   0.022532
  301  H  5 ZZ    0.002111  -0.000536  -0.003312  -0.011457   0.015680
  302  H  5 XY   -0.000036  -0.000043  -0.000451   0.001248   0.010932
  303  H  5 XZ    0.000055  -0.000040  -0.000451   0.001248   0.006877
  304  H  5 YZ   -0.000027  -0.000041   0.000451  -0.001248  -0.012241
  305  H  5 XXX   0.003958   0.004567   0.080958   0.190966  -0.679458
  306  H  5 YYY  -0.007564   0.005614  -0.080958  -0.190966   0.710692
  307  H  5 ZZZ   0.003891   0.005953  -0.080958  -0.190966   0.687085
  308  H  5 XXY   0.011042   0.006094  -0.060660  -0.116311   0.251101
  309  H  5 XXZ  -0.000856   0.005742  -0.060660  -0.116311   0.076976
  310  H  5 YYX  -0.013827   0.001769   0.060660   0.116311  -0.451539
  311  H  5 YYZ   0.005674  -0.012696  -0.060660  -0.116311   0.507793
  312  H  5 ZZX   0.006919   0.002384   0.060660   0.116311  -0.125919
  313  H  5 ZZY  -0.003174  -0.012958  -0.060660  -0.116311   0.356297
  314  H  5 XYZ  -0.002556   0.002345   0.036569   0.035915   0.315930
  315  H  5 XXX  -0.004372  -0.018120   0.016037   0.027146  -0.342353
  316  H  5 YYY   0.014107  -0.009364  -0.016037  -0.027146   0.284660
  317  H  5 ZZZ  -0.016818  -0.010280  -0.016037  -0.027146   0.328265
  318  H  5 XXY   0.005357  -0.004536  -0.004942  -0.007529   0.128817
  319  H  5 XXZ  -0.006766  -0.004895  -0.004942  -0.007529   0.161092
  320  H  5 YYX  -0.001090  -0.007510   0.004942   0.007529  -0.135892
  321  H  5 YYZ  -0.007217  -0.003623  -0.004942  -0.007529   0.125465
  322  H  5 ZZX  -0.002521  -0.007553   0.004942   0.007529  -0.162819
  323  H  5 ZZY   0.006337  -0.003222  -0.004942  -0.007529   0.120117
  324  H  5 XYZ  -0.000594   0.000544  -0.003501  -0.006342  -0.015333

                     11         12         13         14         15
                    2.3718    -0.1600    24.2416    -0.1276    13.5421
                     A          A          A          A          A   
    1  SI 1  S    0.000000   0.000000 178.779946   6.768334   0.000000
    2  SI 1  S    0.000000   0.000002  29.682262   5.073399   0.000000
    3  SI 1  S   -0.000001  -0.000004 -18.605302 -21.633205  -0.000000
    4  SI 1  S    0.000001   0.000008 -14.228518   9.059413   0.000001
    5  SI 1  S    0.000003   0.000027  -0.656469  86.299247   0.000002
    6  SI 1  X   83.874601  21.252653   0.000000  -0.000001  -6.593461
    7  SI 1  Y   15.246709 -11.801033  -0.000000   0.000002  -8.089548
    8  SI 1  Z   24.354731  66.659858   0.000000   0.000002  -1.484377
    9  SI 1  X    3.959966   1.613642   0.000000  -0.000000  -0.089295
   10  SI 1  Y    0.719842  -0.896013  -0.000000   0.000000  -0.109556
   11  SI 1  Z    1.149858   5.061259   0.000000   0.000000  -0.020103
   12  SI 1  X  -22.022042  -4.086143   0.000000   0.000000   3.258659
   13  SI 1  Y   -4.003163   2.268927   0.000000  -0.000000   3.998065
   14  SI 1  Z   -6.394557 -12.816363  -0.000000  -0.000000   0.733618
   15  SI 1  X  -46.047850 -12.415286  -0.000000   0.000000  10.041247
   16  SI 1  Y   -8.370569   6.893878   0.000000  -0.000001  12.319653
   17  SI 1  Z  -13.370949 -38.941076  -0.000000  -0.000001   2.260574
   18  SI 1  X   -1.937802  -0.315536   0.000000  -0.000001   0.146658
   19  SI 1  Y   -0.352253   0.175209   0.000000   0.000001   0.179935
   20  SI 1  Z   -0.562681  -0.989692  -0.000000   0.000001   0.033017
   21  SI 1 XX   -0.000000   0.000000 -11.728395   0.183837  -0.000000
   22  SI 1 YY   -0.000000   0.000000 -11.728395   0.183837  -0.000000
   23  SI 1 ZZ   -0.000000   0.000000 -11.728395   0.183837  -0.000000
   24  SI 1 XY   -0.324007  -0.565239  -0.000000  -0.000000   0.136195
   25  SI 1 XZ   -0.202837   0.100066   0.000000  -0.000000   0.742237
   26  SI 1 YZ   -1.115838  -0.180211   0.000000   0.000000   0.604967
   27  SI 1 XX    0.000000   0.000001 -59.784285   5.835757   0.000000
   28  SI 1 YY    0.000000   0.000001 -59.784285   5.835757   0.000000
   29  SI 1 ZZ    0.000000   0.000001 -59.784285   5.835757   0.000000
   30  SI 1 XY   -2.344599  -3.865447  -0.000000  -0.000000  -0.345504
   31  SI 1 XZ   -1.467782   0.684314   0.000000  -0.000000  -1.882927
   32  SI 1 YZ   -8.074502  -1.232391   0.000000   0.000000  -1.534697
   33  SI 1 XX   -0.000000   0.000000 -11.797764 -47.527831  -0.000000
   34  SI 1 YY   -0.000000   0.000000 -11.797764 -47.527831  -0.000000
   35  SI 1 ZZ   -0.000000   0.000000 -11.797764 -47.527831  -0.000000
   36  SI 1 XY    7.381339  27.550213   0.000000   0.000001  -1.866409
   37  SI 1 XZ    4.620914  -4.877313  -0.000000   0.000001 -10.171540
   38  SI 1 YZ   25.420394   8.783624   0.000000  -0.000000  -8.290407
   39  SI 1 XX   -0.000001  -0.000005  -1.195282 -19.034751  -0.000000
   40  SI 1 YY   -0.000001  -0.000005  -1.195282 -19.034751  -0.000000
   41  SI 1 ZZ   -0.000001  -0.000005  -1.195282 -19.034751  -0.000000
   42  SI 1 XY    0.536868   2.855713   0.000000   0.000000  -0.154160
   43  SI 1 XZ    0.336094  -0.505557  -0.000000   0.000001  -0.840142
   44  SI 1 YZ    1.848906   0.910465   0.000000  -0.000000  -0.684765
   45  SI 1 XXX  -7.114870   0.946612   0.000000  -0.000000   1.142946
   46  SI 1 YYY  -1.293340  -0.525629  -0.000000   0.000000   1.402285
   47  SI 1 ZZZ  -2.065950   2.969091   0.000000   0.000000   0.257310
   48  SI 1 XXY  -0.904420  -0.263519  -0.000000   0.000000  -0.136964
   49  SI 1 XXZ  -1.444699   1.488524   0.000000   0.000000  -0.025132
   50  SI 1 YYX  -4.975358   0.474575   0.000000  -0.000000  -0.111633
   51  SI 1 YYZ  -1.444699   1.488524   0.000000   0.000000  -0.025132
   52  SI 1 ZZX  -4.975358   0.474575   0.000000  -0.000000  -0.111633
   53  SI 1 ZZY  -0.904420  -0.263519  -0.000000   0.000000  -0.136964
   54  SI 1 XYZ   0.000000  -0.000000   0.008006   0.175856   0.000000
   55  SI 1 XXX -15.503705   1.612018   0.000000  -0.000000   9.255827
   56  SI 1 YYY  -2.818261  -0.895111   0.000000   0.000000  11.356018
   57  SI 1 ZZZ  -4.501823   5.056165   0.000000   0.000000   2.083753
   58  SI 1 XXY  -1.989329   0.316549   0.000000   0.000000   3.942272
   59  SI 1 XXZ  -3.177707  -1.788071  -0.000000   0.000000   0.723381
   60  SI 1 YYX -10.943618  -0.570077   0.000000  -0.000000   3.213185
   61  SI 1 YYZ  -3.177707  -1.788071  -0.000000   0.000000   0.723381
[...]
               TOTAL KINETIC ENERGY =       3.5556861972
                 VIRIAL RATIO (V/T) =       2.5872236856

          ---------------------------------------
          MULLIKEN AND LOWDIN POPULATION ANALYSES
          ---------------------------------------

               ----- POPULATIONS IN EACH AO -----
                             MULLIKEN      LOWDIN
              1  SI 1  S      1.53454     0.10240
              2  SI 1  S     -0.02986     0.01285
              3  SI 1  S     -0.02254     0.06240
              4  SI 1  S     -0.24635     0.06274
              5  SI 1  S     -0.40151     0.02989
              6  SI 1  X      0.30432     0.10602
              7  SI 1  Y      0.13280     0.09991
              8  SI 1  Z     -0.05705     0.09262
              9  SI 1  X     -0.01891     0.00887
             10  SI 1  Y     -0.02120     0.00832
             11  SI 1  Z     -0.02360     0.00767
             12  SI 1  X      0.07144     0.05134
             13  SI 1  Y      0.08179     0.04816
             14  SI 1  Z      0.09241     0.04435
             15  SI 1  X      0.38088     0.10726
             16  SI 1  Y      0.43477     0.10039
             17  SI 1  Z      0.49553     0.09217
             18  SI 1  X     -0.18435     0.03138
             19  SI 1  Y     -0.30013     0.04393
             20  SI 1  Z     -0.43886     0.05894
             21  SI 1 XX     -0.00442     0.02230
             22  SI 1 YY     -0.00442     0.02230
             23  SI 1 ZZ     -0.00442     0.02230
             24  SI 1 XY      0.01361     0.00741
             25  SI 1 XZ      0.01371     0.00744
             26  SI 1 YZ      0.01374     0.00746
             27  SI 1 XX     -0.01032     0.05648
             28  SI 1 YY     -0.01032     0.05648
             29  SI 1 ZZ     -0.01032     0.05648
             30  SI 1 XY      0.00703     0.02373
             31  SI 1 XZ      0.00879     0.02424
             32  SI 1 YZ      0.01024     0.02464
             33  SI 1 XX     -0.04441     0.02546
             34  SI 1 YY     -0.04441     0.02546
             35  SI 1 ZZ     -0.04441     0.02546
             36  SI 1 XY      0.44597     0.04770
             37  SI 1 XZ      0.27809     0.04265
             38  SI 1 YZ      0.13942     0.03847
             39  SI 1 XX      0.02163     0.00162
             40  SI 1 YY      0.02163     0.00162
             41  SI 1 ZZ      0.02163     0.00162
             42  SI 1 XY      1.21123     0.08934
             43  SI 1 XZ      0.82480     0.06338
             44  SI 1 YZ      0.50065     0.04168
             45  SI 1 XXX    -0.04287     0.05476
             46  SI 1 YYY    -0.04568     0.05127
             47  SI 1 ZZZ    -0.04867     0.04710
             48  SI 1 XXY    -0.01085     0.03967
             49  SI 1 XXZ    -0.01170     0.03620
             50  SI 1 YYX    -0.00999     0.04257
             51  SI 1 YYZ    -0.01171     0.03620
             52  SI 1 ZZX    -0.00999     0.04257
             53  SI 1 ZZY    -0.01085     0.03967
             54  SI 1 XYZ     0.00531     0.00361
             55  SI 1 XXX    -0.11529     0.05993
             56  SI 1 YYY    -0.12750     0.05705
             57  SI 1 ZZZ    -0.14083     0.05363
             58  SI 1 XXY    -0.03518     0.06225
             59  SI 1 XXZ    -0.05130     0.05680
             60  SI 1 YYX    -0.02192     0.06679
             61  SI 1 YYZ    -0.05130     0.05680
             62  SI 1 ZZX    -0.02192     0.06679
             63  SI 1 ZZY    -0.03517     0.06225
             64  SI 1 XYZ     0.01690     0.02171
             65  SI 1 XXX    -0.03271     0.01498
             66  SI 1 YYY    -0.03499     0.01431
             67  SI 1 ZZZ    -0.03439     0.01352
             68  SI 1 XXY    -0.08656     0.03120
             69  SI 1 XXZ    -0.11927     0.03687
             70  SI 1 YYX    -0.05885     0.02645
             71  SI 1 YYZ    -0.11927     0.03687
             72  SI 1 ZZX    -0.05885     0.02645
             73  SI 1 ZZY    -0.08656     0.03120
             74  SI 1 XYZ    -0.00170     0.00590
             75  SI 1XXXX    -0.00170     0.02692
             76  SI 1YYYY    -0.00170     0.02692
             77  SI 1ZZZZ    -0.00170     0.02692
             78  SI 1XXXY     0.02866     0.01942
             79  SI 1XXXZ     0.02750     0.01972
             80  SI 1YYYX     0.02868     0.01942
             81  SI 1YYYZ     0.02629     0.01995
             82  SI 1ZZZX     0.02751     0.01972
             83  SI 1ZZZY     0.02629     0.01995
             84  SI 1XXYY     0.00821     0.04128
             85  SI 1XXZZ     0.00821     0.04128
             86  SI 1YYZZ     0.00821     0.04128
             87  SI 1XXYZ     0.01184     0.02004
             88  SI 1YYXZ     0.01129     0.01957
             89  SI 1ZZXY     0.01053     0.01899
             90  SI 1XXXX     0.00613     0.01015
             91  SI 1YYYY     0.00613     0.01015
             92  SI 1ZZZZ     0.00613     0.01015
             93  SI 1XXXY     0.02822     0.02742
             94  SI 1XXXZ     0.03092     0.02514
             95  SI 1YYYX     0.02822     0.02742
             96  SI 1YYYZ     0.03361     0.02320
             97  SI 1ZZZX     0.03091     0.02514
             98  SI 1ZZZY     0.03362     0.02320
             99  SI 1XXYY     0.01215     0.02201
            100  SI 1XXZZ     0.01215     0.02201
            101  SI 1YYZZ     0.01215     0.02201
            102  SI 1XXYZ     0.03049     0.02608
            103  SI 1YYXZ     0.03507     0.02697
            104  SI 1ZZXY     0.04067     0.02797
            105  H  2  S      1.23953     0.14820
            106  H  2  S      0.19396     0.08667
            107  H  2  S      0.04670     0.05500
            108  H  2  S     -0.37498     0.11023
            109  H  2  S     -0.03460     0.13141
            110  H  2  X      0.00515     0.02437
            111  H  2  Y     -0.04931     0.03001
            112  H  2  Z     -0.10188     0.03585
            113  H  2  X      0.01115     0.00720
            114  H  2  Y      0.00507     0.00823
            115  H  2  Z     -0.00128     0.00925
            116  H  2  X     -0.00008     0.00125
            117  H  2  Y      0.00139     0.00131
            118  H  2  Z      0.00291     0.00137
            119  H  2  X      0.00022     0.00015
            120  H  2  Y      0.00012     0.00017
            121  H  2  Z      0.00002     0.00019
            122  H  2 XX      0.00869     0.02572
            123  H  2 YY      0.00665     0.02524
            124  H  2 ZZ      0.00402     0.02488
            125  H  2 XY      0.00660     0.00860
            126  H  2 XZ      0.00418     0.00924
            127  H  2 YZ      0.00239     0.00989
            128  H  2 XX      0.00865     0.03569
            129  H  2 YY      0.00857     0.03567
            130  H  2 ZZ      0.00843     0.03571
            131  H  2 XY      0.00021     0.00088
            132  H  2 XZ      0.00023     0.00092
            133  H  2 YZ      0.00023     0.00095
            134  H  2 XX      0.00096     0.03219
            135  H  2 YY      0.00096     0.03219
            136  H  2 ZZ      0.00097     0.03219
            137  H  2 XY      0.00001     0.00004
            138  H  2 XZ      0.00001     0.00004
            139  H  2 YZ      0.00001     0.00004
            140  H  2 XXX    -0.00115     0.00594
            141  H  2 YYY    -0.00070     0.00661
            142  H  2 ZZZ    -0.00025     0.00729
            143  H  2 XXY    -0.00107     0.00362
            144  H  2 XXZ    -0.00080     0.00410
            145  H  2 YYX    -0.00081     0.00332
            146  H  2 YYZ    -0.00035     0.00430
            147  H  2 ZZX    -0.00030     0.00353
            148  H  2 ZZY    -0.00012     0.00402
            149  H  2 XYZ     0.00007     0.00018
            150  H  2 XXX     0.00019     0.00083
            151  H  2 YYY    -0.00026     0.00093
            152  H  2 ZZZ    -0.00073     0.00103
            153  H  2 XXY    -0.00001     0.00060
            154  H  2 XXZ    -0.00014     0.00062
            155  H  2 YYX     0.00012     0.00057
            156  H  2 YYZ    -0.00015     0.00061
            157  H  2 ZZX     0.00011     0.00056
            158  H  2 ZZY    -0.00002     0.00058
            159  H  2 XYZ     0.00002     0.00007
            160  H  3  S      1.25429     0.15004
            161  H  3  S      0.18431     0.08314
            162  H  3  S      0.04506     0.05548
            163  H  3  S     -0.37518     0.11162
            164  H  3  S     -0.03520     0.13316
            165  H  3  X     -0.03633     0.03017
            166  H  3  Y     -0.01086     0.02432
            167  H  3  Z     -0.11020     0.03664
            168  H  3  X      0.00769     0.00840
            169  H  3  Y      0.00805     0.00695
            170  H  3  Z     -0.00164     0.00938
            171  H  3  X      0.00121     0.00131
            172  H  3  Y      0.00006     0.00126
            173  H  3  Z      0.00294     0.00138
            174  H  3  X      0.00013     0.00017
            175  H  3  Y      0.00021     0.00016
            176  H  3  Z      0.00002     0.00019
            177  H  3 XX      0.00458     0.02464
            178  H  3 YY      0.01119     0.02670
            179  H  3 ZZ      0.00384     0.02489
            180  H  3 XY      0.00662     0.00849
            181  H  3 XZ      0.00382     0.00993
            182  H  3 YZ      0.00276     0.00917
            183  H  3 XX      0.00842     0.03580
            184  H  3 YY      0.00893     0.03653
            185  H  3 ZZ      0.00847     0.03615
            186  H  3 XY      0.00022     0.00088
            187  H  3 XZ      0.00021     0.00091
            188  H  3 YZ      0.00025     0.00095
            189  H  3 XX      0.00095     0.03259
            190  H  3 YY      0.00099     0.03266
            191  H  3 ZZ      0.00097     0.03262
            192  H  3 XY      0.00001     0.00004
            193  H  3 XZ      0.00001     0.00004
            194  H  3 YZ      0.00002     0.00004
            195  H  3 XXX    -0.00050     0.00673
            196  H  3 YYY    -0.00158     0.00578
            197  H  3 ZZZ    -0.00043     0.00737
            198  H  3 XXY    -0.00089     0.00321
            199  H  3 XXZ    -0.00062     0.00425
            200  H  3 YYX    -0.00104     0.00367
            201  H  3 YYZ    -0.00067     0.00423
            202  H  3 ZZX    -0.00025     0.00400
            203  H  3 ZZY    -0.00015     0.00351
            204  H  3 XYZ     0.00006     0.00017
            205  H  3 XXX    -0.00021     0.00092
            206  H  3 YYY     0.00015     0.00086
            207  H  3 ZZZ    -0.00075     0.00105
            208  H  3 XXY     0.00011     0.00058
            209  H  3 XXZ    -0.00015     0.00062
            210  H  3 YYX     0.00000     0.00059
            211  H  3 YYZ    -0.00015     0.00063
            212  H  3 ZZX    -0.00000     0.00057
            213  H  3 ZZY     0.00010     0.00057
            214  H  3 XYZ     0.00002     0.00007
            215  H  4  S      1.36212     0.16361
            216  H  4  S      0.11015     0.05599
            217  H  4  S      0.03163     0.05897
            218  H  4  S     -0.37601     0.12175
            219  H  4  S     -0.04151     0.14608
            220  H  4  X     -0.09217     0.03650
            221  H  4  Y     -0.11356     0.03714
            222  H  4  Z     -0.04334     0.02460
            223  H  4  X      0.00099     0.00939
            224  H  4  Y     -0.00223     0.00935
            225  H  4  Z      0.00094     0.00642
            226  H  4  X      0.00268     0.00140
            227  H  4  Y      0.00288     0.00142
            228  H  4  Z      0.00036     0.00131
            229  H  4  X      0.00005     0.00019
            230  H  4  Y      0.00003     0.00020
            231  H  4  Z      0.00020     0.00018
            232  H  4 XX      0.00239     0.02464
            233  H  4 YY      0.00429     0.02526
            234  H  4 ZZ      0.01580     0.02895
            235  H  4 XY      0.00603     0.00992
            236  H  4 XZ      0.00481     0.00829
            237  H  4 YZ      0.00338     0.00834
            238  H  4 XX      0.00832     0.03903
            239  H  4 YY      0.00849     0.03933
            240  H  4 ZZ      0.00934     0.04057
            241  H  4 XY      0.00019     0.00088
            242  H  4 XZ      0.00025     0.00093
            243  H  4 YZ      0.00027     0.00096
            244  H  4 XX      0.00097     0.03576
            245  H  4 YY      0.00098     0.03579
            246  H  4 ZZ      0.00105     0.03592
            247  H  4 XY      0.00002     0.00004
            248  H  4 XZ      0.00002     0.00004
            249  H  4 YZ      0.00002     0.00004
            250  H  4 XXX    -0.00007     0.00738
            251  H  4 YYY    -0.00039     0.00734
            252  H  4 ZZZ    -0.00233     0.00541
            253  H  4 XXY    -0.00064     0.00417
            254  H  4 XXZ    -0.00051     0.00310
            255  H  4 YYX    -0.00051     0.00420
            256  H  4 YYZ    -0.00027     0.00320
            257  H  4 ZZX    -0.00079     0.00406
            258  H  4 ZZY    -0.00068     0.00413
            259  H  4 XYZ     0.00002     0.00010
            260  H  4 XXX    -0.00066     0.00105
            261  H  4 YYY    -0.00072     0.00108
            262  H  4 ZZZ     0.00006     0.00093
            263  H  4 XXY    -0.00014     0.00064
            264  H  4 XXZ     0.00009     0.00063
            265  H  4 YYX    -0.00012     0.00063
            266  H  4 YYZ     0.00009     0.00062
            267  H  4 ZZX    -0.00012     0.00064
            268  H  4 ZZY    -0.00013     0.00065
            269  H  4 XYZ     0.00002     0.00007
            270  H  5  S      1.46758     0.17686
            271  H  5  S      0.03800     0.02956
            272  H  5  S      0.01888     0.06238
            273  H  5  S     -0.37672     0.13166
            274  H  5  S     -0.04724     0.15870
            275  H  5  X     -0.11484     0.03763
            276  H  5  Y     -0.12282     0.03678
            277  H  5  Z     -0.09948     0.03073
            278  H  5  X     -0.00281     0.00928
            279  H  5  Y     -0.00589     0.00891
            280  H  5  Z     -0.00568     0.00738
            281  H  5  X      0.00289     0.00145
            282  H  5  Y      0.00298     0.00145
            283  H  5  Z      0.00177     0.00140
            284  H  5  X      0.00004     0.00021
            285  H  5  Y      0.00004     0.00021
            286  H  5  Z      0.00011     0.00020
            287  H  5 XX      0.00425     0.02575
            288  H  5 YY      0.00694     0.02672
            289  H  5 ZZ      0.01375     0.02897
            290  H  5 XY      0.00658     0.00910
            291  H  5 XZ      0.00497     0.00829
            292  H  5 YZ      0.00358     0.00813
            293  H  5 XX      0.00857     0.04250
            294  H  5 YY      0.00880     0.04291
            295  H  5 ZZ      0.00933     0.04372
            296  H  5 XY      0.00021     0.00088
            297  H  5 XZ      0.00026     0.00093
            298  H  5 YZ      0.00028     0.00097
            299  H  5 XX      0.00100     0.03888
            300  H  5 YY      0.00102     0.03892
            301  H  5 ZZ      0.00107     0.03901
            302  H  5 XY      0.00002     0.00004
            303  H  5 XZ      0.00002     0.00004
            304  H  5 YZ      0.00002     0.00004
            305  H  5 XXX    -0.00047     0.00729
            306  H  5 YYY    -0.00065     0.00705
            307  H  5 ZZZ    -0.00201     0.00604
            308  H  5 XXY    -0.00060     0.00391
            309  H  5 XXZ    -0.00051     0.00340
            310  H  5 YYX    -0.00065     0.00405
            311  H  5 YYZ    -0.00035     0.00347
            312  H  5 ZZX    -0.00064     0.00403
            313  H  5 ZZY    -0.00043     0.00396
            314  H  5 XYZ    -0.00003     0.00003
            315  H  5 XXX    -0.00073     0.00111
            316  H  5 YYY    -0.00074     0.00112
            317  H  5 ZZZ    -0.00038     0.00105
            318  H  5 XXY    -0.00013     0.00067
            319  H  5 XXZ    -0.00003     0.00067
            320  H  5 YYX    -0.00013     0.00067
            321  H  5 YYZ    -0.00003     0.00067
            322  H  5 ZZX    -0.00013     0.00067
            323  H  5 ZZY    -0.00013     0.00068
            324  H  5 XYZ     0.00002     0.00008

          ----- MULLIKEN ATOMIC OVERLAP POPULATIONS -----
          (OFF-DIAGONAL ELEMENTS NEED TO BE MULTIPLIED BY 2)

             1           2           3           4           5

    1  136.3800677
    2  -51.6697876 175.4077929
    3  -48.9111573 -42.7943048 167.0017756
    4  -26.5027816 -41.4911022 -58.1552601  97.2341479
    5   -5.0065109 -38.4530664 -16.1511522  29.8170240  30.6124139

          TOTAL MULLIKEN AND LOWDIN ATOMIC POPULATIONS
       ATOM         MULL.POP.    CHARGE          LOW.POP.     CHARGE
    1 SI            4.289830   -0.289830         3.813121    0.186879
    2 H             0.999532    0.000468         1.010239   -0.010239
    3 H             0.989901    0.010099         1.016207   -0.016207
    4 H             0.902028    0.097972         1.059192   -0.059192
    5 H             0.818708    0.181292         1.101241   -0.101241

          ---------------------
          ELECTROSTATIC MOMENTS
          ---------------------

 POINT   1           X           Y           Z (BOHR)    CHARGE
                 0.000000    0.000000    0.000000        0.00 (A.U.)
         DX          DY          DZ         /D/  (DEBYE)
    -0.808540    1.062428    2.982742    3.267910
 ...... END OF PROPERTY EVALUATION ......
 STEP CPU TIME =     0.26 TOTAL CPU TIME =      164.8 (    2.7 MIN)
 TOTAL WALL CLOCK TIME=      568.0 SECONDS, CPU UTILIZATION IS  29.01%
             68819930  WORDS OF DYNAMIC MEMORY USED
 EXECUTION OF GAMESS TERMINATED NORMALLY Fri May 29 00:44:08 2020
 DDI: 263640 bytes (0.3 MB / 0 MWords) used by master data server.

 ----------------------------------------
 CPU timing information for all processes
 ========================================
 0: 129.992 + 35.212 = 165.204
 ----------------------------------------
 ddikick.x: exited gracefully.
----- accounting info -----
Files used on the master node gwang18-p3 were:
-rw-rw-r-- 1 gwang18 gwang18     1877007 5月  29 00:44 /home/gwang18/research/projects/si_gap/sih4/cis/aug-qz/30orb/ci.dat
-rw-rw-r-- 1 gwang18 gwang18     1696080 5月  29 00:34 /home/gwang18/research/projects/si_gap/sih4/cis/aug-qz/30orb/ci.F05
-rw-rw-r-- 1 gwang18 gwang18 20351196656 5月  29 00:39 /home/gwang18/research/projects/si_gap/sih4/cis/aug-qz/30orb/ci.F08
-rw-rw-r-- 1 gwang18 gwang18      244784 5月  29 00:44 /home/gwang18/research/projects/si_gap/sih4/cis/aug-qz/30orb/ci.F09
-rw-rw-r-- 1 gwang18 gwang18    16687200 5月  29 00:44 /home/gwang18/research/projects/si_gap/sih4/cis/aug-qz/30orb/ci.F10
-rw-rw-r-- 1 gwang18 gwang18      293184 5月  29 00:37 /home/gwang18/research/projects/si_gap/sih4/cis/aug-qz/30orb/ci.F11
-rw-rw-r-- 1 gwang18 gwang18        2136 5月  29 00:44 /home/gwang18/research/projects/si_gap/sih4/cis/aug-qz/30orb/ci.F12
-rw-rw-r-- 1 gwang18 gwang18     1600032 5月  29 00:44 /home/gwang18/research/projects/si_gap/sih4/cis/aug-qz/30orb/ci.F14
-rw-rw-r-- 1 gwang18 gwang18      161192 5月  29 00:44 /home/gwang18/research/projects/si_gap/sih4/cis/aug-qz/30orb/ci.F15
-rw-rw-r-- 1 gwang18 gwang18      480232 5月  29 00:44 /home/gwang18/research/projects/si_gap/sih4/cis/aug-qz/30orb/ci.F16
-rw-rw-r-- 1 gwang18 gwang18     1696080 5月  29 00:34 /home/gwang18/research/projects/si_gap/sih4/cis/aug-qz/30orb/ci.inp
-rw-rw-r-- 1 gwang18 gwang18     1747872 5月  29 00:44 /home/gwang18/research/projects/si_gap/sih4/cis/aug-qz/30orb/ci.out
2020年 05月 29日 星期五 00:44:12 EDT
0.0u 0.1s 9:32.98 0.0% 0+0k 4896+3336io 73pf+0w
