----- GAMESS execution script 'rungms' -----
This job is running on host nid00104
under operating system Linux at Wed Jul 8 15:43:22 PDT 2020
Available scratch disk space (Kbyte units) at beginning of the job is
Filesystem                                                 1K-blocks           Used      Available Use% Mounted on
10.100.104.4@o2ib4000:10.101.104.5@o2ib4001:/snx11168 29531080226208 17963275156356 11269986779344  62% /global/cscratch1
GAMESS temporary binary files will be written to /global/cscratch1/sd/aannabe
GAMESS supplementary output files will be written to /global/cscratch1/sd/aannabe/docs/molecules_Si/SiH4/gamess/PBE_QZ
Copying input file scf.inp to your run's scratch directory...

 Distributed Data Interface kickoff program.
 Initiating 1 compute processes on 1 nodes to run the following command:
 /global/homes/a/aannabe/codes/gamess/gamess.00.x scf 

          ******************************************************
          *         GAMESS VERSION =  1 MAY 2013 (R1)          *
          *             FROM IOWA STATE UNIVERSITY             *
          * M.W.SCHMIDT, K.K.BALDRIDGE, J.A.BOATZ, S.T.ELBERT, *
          *   M.S.GORDON, J.H.JENSEN, S.KOSEKI, N.MATSUNAGA,   *
          *          K.A.NGUYEN, S.J.SU, T.L.WINDUS,           *
          *       TOGETHER WITH M.DUPUIS, J.A.MONTGOMERY       *
          *         J.COMPUT.CHEM.  14, 1347-1363(1993)        *
          **************** 64 BIT INTEL VERSION ****************

  SINCE 1993, STUDENTS AND POSTDOCS WORKING AT IOWA STATE UNIVERSITY
  AND ALSO IN THEIR VARIOUS JOBS AFTER LEAVING ISU HAVE MADE IMPORTANT
  CONTRIBUTIONS TO THE CODE:
     IVANA ADAMOVIC, CHRISTINE AIKENS, YURI ALEXEEV, POOJA ARORA,
     ANDREY ASADCHEV, ROB BELL, PRADIPTA BANDYOPADHYAY, JONATHAN BENTZ,
     BRETT BODE, GALINA CHABAN, WEI CHEN, CHEOL HO CHOI, PAUL DAY,
     ALBERT DEFUSCO, TIM DUDLEY, DMITRI FEDOROV, GRAHAM FLETCHER,
     MARK FREITAG, KURT GLAESEMANN, DAN KEMP, GRANT MERRILL,
     NORIYUKI MINEZAWA, JONATHAN MULLIN, TAKESHI NAGATA,
     SEAN NEDD, HEATHER NETZLOFF, BOSILJKA NJEGIC, RYAN OLSON, MIKE PAK,
     JIM SHOEMAKER, LYUDMILA SLIPCHENKO, SAROM SOK, JIE SONG,
     TETSUYA TAKETSUGU, SIMON WEBB, SOOHAENG YOO, FEDERICO ZAHARIEV

  ADDITIONAL CODE HAS BEEN PROVIDED BY COLLABORATORS IN OTHER GROUPS:
     IOWA STATE UNIVERSITY:
          JOE IVANIC, LAIMUTIS BYTAUTAS, KLAUS RUEDENBERG
     UNIVERSITY OF TOKYO: KIMIHIKO HIRAO, TAKAHITO NAKAJIMA,
          TAKAO TSUNEDA, MUNEAKI KAMIYA, SUSUMU YANAGISAWA,
          KIYOSHI YAGI, MAHITO CHIBA, SEIKEN TOKURA, NAOAKI KAWAKAMI
     UNIVERSITY OF AARHUS: FRANK JENSEN
     UNIVERSITY OF IOWA: VISVALDAS KAIRYS, HUI LI
     NATIONAL INST. OF STANDARDS AND TECHNOLOGY: WALT STEVENS, DAVID GARMER
     UNIVERSITY OF PISA: BENEDETTA MENNUCCI, JACOPO TOMASI
     UNIVERSITY OF MEMPHIS: HENRY KURTZ, PRAKASHAN KORAMBATH
     UNIVERSITY OF ALBERTA: TOBY ZENG, MARIUSZ KLOBUKOWSKI
     UNIVERSITY OF NEW ENGLAND: MARK SPACKMAN
     MIE UNIVERSITY: HIROAKI UMEDA
     MICHIGAN STATE UNIVERSITY:
          KAROL KOWALSKI, MARTA WLOCH, JEFFREY GOUR, JESSE LUTZ,
          WEI LI, PIOTR PIECUCH
     UNIVERSITY OF SILESIA: MONIKA MUSIAL, STANISLAW KUCHARSKI
     FACULTES UNIVERSITAIRES NOTRE-DAME DE LA PAIX:
          OLIVIER QUINET, BENOIT CHAMPAGNE
     UNIVERSITY OF CALIFORNIA - SANTA BARBARA: BERNARD KIRTMAN
     INSTITUTE FOR MOLECULAR SCIENCE:
          KAZUYA ISHIMURA, MICHIO KATOUDA, AND SHIGERU NAGASE
     UNIVERSITY OF NOTRE DAME: DAN CHIPMAN
     KYUSHU UNIVERSITY:
          HARUYUKI NAKANO,
          FENG LONG GU, JACEK KORCHOWIEC, MARCIN MAKOWSKI, AND YURIKO AOKI,
          HIROTOSHI MORI AND EISAKU MIYOSHI
     PENNSYLVANIA STATE UNIVERSITY:
          TZVETELIN IORDANOV, CHET SWALINA, JONATHAN SKONE,
          SHARON HAMMES-SCHIFFER
     WASEDA UNIVERSITY:
          MASATO KOBAYASHI, TOMOKO AKAMA, TSUGUKI TOUMA,
          TAKESHI YOSHIKAWA, YASUHIRO IKABATA, HIROMI NAKAI
     NANJING UNIVERSITY: SHUHUA LI
     UNIVERSITY OF NEBRASKA:
          PEIFENG SU, DEJUN SI, NANDUN THELLAMUREGE, YALI WANG, HUI LI
     UNIVERSITY OF ZURICH:
          ROBERTO PEVERATI, KIM BALDRIDGE
     N. COPERNICUS UNIVERSITY AND JACKSON STATE UNIVERSITY:
          MARIA BARYSZ

 EXECUTION OF GAMESS BEGUN Wed Jul  8 15:43:22 2020

            ECHO OF THE FIRST FEW INPUT CARDS -
 INPUT CARD> $CONTRL                                                                        
 INPUT CARD>     SCFTYP=ROHF                                                                
 INPUT CARD>     MULT=1                                                                     
 INPUT CARD>     ICHARG=0                                                                   
 INPUT CARD>     RUNTYP=ENERGY                                                              
 INPUT CARD>     MAXIT=150                                                                  
 INPUT CARD>     ECP=READ                                                                   
 INPUT CARD>     ISPHER=1                                                                   
 INPUT CARD>     UNITS=ANGS                                                                 
 INPUT CARD> $END                                                                           
 INPUT CARD>                                                                                
 INPUT CARD> $DFT                                                                           
 INPUT CARD>     DFTTYP=PBE                                                                 
 INPUT CARD> $END                                                                           
 INPUT CARD>                                                                                
 INPUT CARD> $SYSTEM                                                                        
 INPUT CARD>     KDIAG=3                                                                    
 INPUT CARD>     MWORDS=125                                                                 
 INPUT CARD> $END                                                                           
 INPUT CARD>                                                                                
 INPUT CARD> !$SCF                                                                          
 INPUT CARD> !    DIRSCF=.t.                                                                
 INPUT CARD> !    DIIS=.t.                                                                  
 INPUT CARD> !    DAMP=.t.                                                                  
 INPUT CARD> !    SHIFT=.t.                                                                 
 INPUT CARD> !    RSTRCT=.t.                                                                
 INPUT CARD> !$END                                                                          
 INPUT CARD>                                                                                
 INPUT CARD> $GUESS                                                                         
 INPUT CARD>    GUESS=HUCKEL                                                                
 INPUT CARD>!    GUESS=MOREAD                                                               
 INPUT CARD>!    NORB=71                                                                    
 INPUT CARD>!    NORDER=1                                                                   
 INPUT CARD>!    IORDER(5)=7,5,6,8,9,10                                                     
 INPUT CARD> $END                                                                           
 INPUT CARD>                                                                                
 INPUT CARD>                                                                                
 INPUT CARD> $DATA                                                                          
 INPUT CARD>                                                                                
 INPUT CARD>C1                                                                              
 INPUT CARD>Si 14         0.0000        0.0000        0.0000                                
 INPUT CARD>S  10                                                                           
 INPUT CARD>  1  9.998274  0.002894                                                         
 INPUT CARD>  2  5.517644 -0.014523                                                         
 INPUT CARD>  3  3.044965  0.077634                                                         
 INPUT CARD>  4  1.680393 -0.224022                                                         
 INPUT CARD>  5  0.927341 -0.149080                                                         
 INPUT CARD>  6  0.511762  0.085944                                                         
 INPUT CARD>  7  0.282421  0.355394                                                         
 INPUT CARD>  8  0.155857  0.445219                                                         
  125000000 WORDS OF MEMORY AVAILABLE


     RUN TITLE
     ---------
                                                                                 

 THE POINT GROUP OF THE MOLECULE IS C1      
 THE ORDER OF THE PRINCIPAL AXIS IS     0
 *** WARNING! ATOM   1 SHELL    6 TYPE P HAS NORMALIZATION   0.99999860

 ATOM      ATOMIC                      COORDINATES (BOHR)
           CHARGE         X                   Y                   Z
 SI         14.0     0.0000000000        0.0000000000        0.0000000000
 H           1.0     1.6145818839        1.6145818839        1.6145818839
 H           1.0    -1.6145818839       -1.6145818839        1.6145818839
 H           1.0    -1.6145818839        1.6145818839       -1.6145818839
 H           1.0     1.6145818839       -1.6145818839       -1.6145818839

          INTERNUCLEAR DISTANCES (ANGS.)
          ------------------------------

                1 SI         2 H          3 H          4 H          5 H     

   1 SI      0.0000000    1.4798642 *  1.4798642 *  1.4798642 *  1.4798642 *
   2 H       1.4798642 *  0.0000000    2.4166081 *  2.4166081 *  2.4166081 *
   3 H       1.4798642 *  2.4166081 *  0.0000000    2.4166081 *  2.4166081 *
   4 H       1.4798642 *  2.4166081 *  2.4166081 *  0.0000000    2.4166081 *
   5 H       1.4798642 *  2.4166081 *  2.4166081 *  2.4166081 *  0.0000000  

  * ... LESS THAN  3.000


     ATOMIC BASIS SET
     ----------------
 THE CONTRACTED PRIMITIVE FUNCTIONS HAVE BEEN UNNORMALIZED
 THE CONTRACTED BASIS FUNCTIONS ARE NOW NORMALIZED TO UNITY

  SHELL TYPE  PRIMITIVE        EXPONENT          CONTRACTION COEFFICIENT(S)

 SI        

      1   S       1             9.9982740    0.002893997896
      1   S       2             5.5176440   -0.014522989441
      1   S       3             3.0449650    0.077633943557
      1   S       4             1.6803930   -0.224021837126
      1   S       5             0.9273410   -0.149079891612
      1   S       6             0.5117620    0.085943937515
      1   S       7             0.2824210    0.355393741613
      1   S       8             0.1558570    0.445218676307
      1   S       9             0.0860110    0.267229805712
      1   S      10             0.0474660    0.060786955805

      2   S      11             0.4885040    1.000000000000

      3   S      12             0.1994570    1.000000000000

      4   S      13             0.0814390    1.000000000000

      5   S      14             0.0349830    1.000000000000

      6   P      15             5.0278680   -0.003241995466
      6   P      16             2.8677510    0.010648985106
      6   P      17             1.6356830   -0.049760930401
      6   P      18             0.9329470   -0.000016999976
      6   P      19             0.5321260    0.106059851657
      6   P      20             0.3035090    0.236201669632
      6   P      21             0.1731130    0.310664565483
      6   P      22             0.0987390    0.294695587818
      6   P      23             0.0563180    0.153897784748
      6   P      24             0.0321220    0.042336940785

      7   P      25             1.2257900    1.000000000000

      8   P      26             0.5013640    1.000000000000

      9   P      27             0.2050640    1.000000000000

     10   P      28             0.0254720    1.000000000000

     11   D      29             0.9970030    1.000000000000

     12   D      30             0.3659420    1.000000000000

     13   D      31             0.1343160    1.000000000000

     14   D      32             0.0464970    1.000000000000

     15   F      33             0.5491160    1.000000000000

     16   F      34             0.2149980    1.000000000000

     17   F      35             0.0868520    1.000000000000

     18   G      36             0.4595470    1.000000000000

     19   G      37             0.2073800    1.000000000000

 H         

     20   S      38            23.8431850    0.004114899701
     20   S      39            10.2124430    0.010464399240
     20   S      40             4.3741640    0.028011097966
     20   S      41             1.8735290    0.075886194491
     20   S      42             0.8024650    0.182106186780
     20   S      43             0.3437090    0.348521374698
     20   S      44             0.1472170    0.378231272542
     20   S      45             0.0630550    0.116424091548

     21   S      46             0.0287260    1.000000000000

     22   S      47             0.0818560    1.000000000000

     23   S      48             0.2332540    1.000000000000

     24   S      49             0.6646730    1.000000000000

     25   P      50             0.0955220    1.000000000000

     26   P      51             0.2844690    1.000000000000

     27   P      52             0.8471590    1.000000000000

     28   P      53             2.5228680    1.000000000000

     29   D      54             0.2160330    1.000000000000

     30   D      55             0.6652790    1.000000000000

     31   D      56             2.0487390    1.000000000000

     32   F      57             0.4446470    1.000000000000

     33   F      58             1.4214600    1.000000000000

 H         

     34   S      59            23.8431850    0.004114899701
     34   S      60            10.2124430    0.010464399240
     34   S      61             4.3741640    0.028011097966
     34   S      62             1.8735290    0.075886194491
     34   S      63             0.8024650    0.182106186780
     34   S      64             0.3437090    0.348521374698
     34   S      65             0.1472170    0.378231272542
     34   S      66             0.0630550    0.116424091548

     35   S      67             0.0287260    1.000000000000

     36   S      68             0.0818560    1.000000000000

     37   S      69             0.2332540    1.000000000000

     38   S      70             0.6646730    1.000000000000

     39   P      71             0.0955220    1.000000000000

     40   P      72             0.2844690    1.000000000000

     41   P      73             0.8471590    1.000000000000

     42   P      74             2.5228680    1.000000000000

     43   D      75             0.2160330    1.000000000000

     44   D      76             0.6652790    1.000000000000

     45   D      77             2.0487390    1.000000000000

     46   F      78             0.4446470    1.000000000000

     47   F      79             1.4214600    1.000000000000

 H         

     48   S      80            23.8431850    0.004114899701
     48   S      81            10.2124430    0.010464399240
     48   S      82             4.3741640    0.028011097966
     48   S      83             1.8735290    0.075886194491
     48   S      84             0.8024650    0.182106186780
     48   S      85             0.3437090    0.348521374698
     48   S      86             0.1472170    0.378231272542
     48   S      87             0.0630550    0.116424091548

     49   S      88             0.0287260    1.000000000000

     50   S      89             0.0818560    1.000000000000

     51   S      90             0.2332540    1.000000000000

     52   S      91             0.6646730    1.000000000000

     53   P      92             0.0955220    1.000000000000

     54   P      93             0.2844690    1.000000000000

     55   P      94             0.8471590    1.000000000000

     56   P      95             2.5228680    1.000000000000

     57   D      96             0.2160330    1.000000000000

     58   D      97             0.6652790    1.000000000000

     59   D      98             2.0487390    1.000000000000

     60   F      99             0.4446470    1.000000000000

     61   F     100             1.4214600    1.000000000000

 H         

     62   S     101            23.8431850    0.004114899701
     62   S     102            10.2124430    0.010464399240
     62   S     103             4.3741640    0.028011097966
     62   S     104             1.8735290    0.075886194491
     62   S     105             0.8024650    0.182106186780
     62   S     106             0.3437090    0.348521374698
     62   S     107             0.1472170    0.378231272542
     62   S     108             0.0630550    0.116424091548

     63   S     109             0.0287260    1.000000000000

     64   S     110             0.0818560    1.000000000000

     65   S     111             0.2332540    1.000000000000

     66   S     112             0.6646730    1.000000000000

     67   P     113             0.0955220    1.000000000000

     68   P     114             0.2844690    1.000000000000

     69   P     115             0.8471590    1.000000000000

     70   P     116             2.5228680    1.000000000000

     71   D     117             0.2160330    1.000000000000

     72   D     118             0.6652790    1.000000000000

     73   D     119             2.0487390    1.000000000000

     74   F     120             0.4446470    1.000000000000

     75   F     121             1.4214600    1.000000000000

 TOTAL NUMBER OF BASIS SET SHELLS             =   75
 NUMBER OF CARTESIAN GAUSSIAN BASIS FUNCTIONS =  324
 NOTE: THIS RUN WILL RESTRICT THE MO VARIATION SPACE TO SPHERICAL HARMONICS.
 THE NUMBER OF ORBITALS KEPT IN THE VARIATIONAL SPACE WILL BE PRINTED LATER.
 NUMBER OF ELECTRONS                          =   18
 CHARGE OF MOLECULE                           =    0
 SPIN MULTIPLICITY                            =    1
 NUMBER OF OCCUPIED ORBITALS (ALPHA)          =    9
 NUMBER OF OCCUPIED ORBITALS (BETA )          =    9
 TOTAL NUMBER OF ATOMS                        =    5
 THE NUCLEAR REPULSION ENERGY IS       21.3386114148
 NOTE THIS RUN IS USING CORE POTENTIALS, AND THE NUMBER OF ELECTRONS,
 OCCUPIED ORBITALS, AND NUCLEAR REPULSION ENERGY WILL BE ADJUSTED BELOW
 AFTER REMOVAL OF THE CORE CHARGES.

 *** WARNING ***
 KEYWORD DFTTYP IN $DFT IS NOW OBSOLETE.
 PLEASE ENTER DFTTYP IN THE $CONTRL GROUP IN FUTURE INPUT FILES.


     LEBEDEV GRID-BASED DFT OPTIONS
     ------------------------------
     DFTTYP=PBE     
     NRAD  =      96     NLEB  =     302
     NRAD0 =      24     NLEB0 =     110
     SWOFF =    5.00E-03 (PURE SCF -> DFT)
     SWITCH=    3.00E-04 (COARSE -> TIGHT GRID)
     THRESH=    0.00E+00 GTHRE=    1.00E+00

 GRIMME'S EMPIRICAL DISPERSION CORRECTION= F

     $CONTRL OPTIONS
     ---------------
 SCFTYP=ROHF         RUNTYP=ENERGY       EXETYP=RUN     
 MPLEVL=       0     CITYP =NONE         CCTYP =NONE         VBTYP =NONE    
 DFTTYP=PBE          TDDFT =NONE    
 MULT  =       1     ICHARG=       0     NZVAR =       0     COORD =UNIQUE  
 PP    =READ         RELWFN=NONE         LOCAL =NONE         NUMGRD=       F
 ISPHER=       1     NOSYM =       0     MAXIT =     150     UNITS =ANGS    
 PLTORB=       F     MOLPLT=       F     AIMPAC=       F     FRIEND=        
 NPRINT=       7     IREST =       0     GEOM  =INPUT   
 NORMF =       0     NORMP =       0     ITOL  =      20     ICUT  =       9
 INTTYP=BEST         GRDTYP=BEST         QMTTOL= 1.0E-06

     $SYSTEM OPTIONS
     ---------------
  REPLICATED MEMORY=   125000000 WORDS (ON EVERY NODE).
 DISTRIBUTED MEMDDI=           0 MILLION WORDS IN AGGREGATE,
 MEMDDI DISTRIBUTED OVER   1 PROCESSORS IS           0 WORDS/PROCESSOR.
 TOTAL MEMORY REQUESTED ON EACH PROCESSOR=   125000000 WORDS.
 TIMLIM=      525600.00 MINUTES, OR     365.0 DAYS.
 PARALL= F  BALTYP=  DLB     KDIAG=    3  COREFL= F
 MXSEQ2=     300 MXSEQ3=     150

          --------------
          ECP POTENTIALS
          --------------

 PARAMETERS FOR "SI-CCECP" ON ATOM    1 WITH ZCORE  10 AND LMAX  2 ARE
 FOR L= 2      COEFF    N           ZETA
    1        4.00000    1        5.16832
    2       20.67326    3        8.86169
    3      -14.81817    2        3.93347
 FOR L= 0      COEFF    N           ZETA
    1       14.83276    2        9.44702
    2       26.34966    2        2.55381
 FOR L= 1      COEFF    N           ZETA
    1        7.62140    2        3.66000
    2       10.33158    2        1.90365

 PARAMETERS FOR "H-CCECP " ON ATOM    2 WITH ZCORE   0 AND LMAX  1 ARE
 FOR L= 1      COEFF    N           ZETA
    1        1.00000    1       21.24360
    2       21.24360    3       21.24360
    3      -10.85192    2       21.77697
 FOR L= 0      COEFF    N           ZETA
    1        0.00000    2        1.00000

 PARAMETERS FOR "H-CCECP " ON ATOM    3 ARE THE SAME AS ATOM   2

 PARAMETERS FOR "H-CCECP " ON ATOM    4 ARE THE SAME AS ATOM   2

 PARAMETERS FOR "H-CCECP " ON ATOM    5 ARE THE SAME AS ATOM   2

 THE ECP RUN REMOVES   10 CORE ELECTRONS, AND THE SAME NUMBER OF PROTONS.
 NUMBER OF ELECTRONS KEPT IN THE CALCULATION IS =    8
 NUMBER OF OCCUPIED ORBITALS (ALPHA) KEPT IS    =    4
 NUMBER OF OCCUPIED ORBITALS (BETA ) KEPT IS    =    4
 THE ADJUSTED NUCLEAR REPULSION ENERGY=        7.0352112604
          ECP ANGULAR INTS.........     0.02 SECONDS

          ----------------
          PROPERTIES INPUT
          ----------------

     MOMENTS            FIELD           POTENTIAL          DENSITY
 IEMOM =       1   IEFLD =       0   IEPOT =       0   IEDEN =       0
 WHERE =COMASS     WHERE =NUCLEI     WHERE =NUCLEI     WHERE =NUCLEI  
 OUTPUT=BOTH       OUTPUT=BOTH       OUTPUT=BOTH       OUTPUT=BOTH    
 IEMINT=       0   IEFINT=       0                     IEDINT=       0
                                                       MORB  =       0
          EXTRAPOLATION IN EFFECT
          DIIS IN EFFECT
 ORBITAL PRINTING OPTION: NPREO=     1   324     2     1

     -------------------------------
     INTEGRAL TRANSFORMATION OPTIONS
     -------------------------------
     NWORD  =            0
     CUTOFF = 1.0E-09     MPTRAN =       0
     DIRTRF =       F     AOINTS =DUP     

          ----------------------
          INTEGRAL INPUT OPTIONS
          ----------------------
 NOPK  =       1 NORDER=       0 SCHWRZ=       F

     ------------------------------------------
     THE POINT GROUP IS C1 , NAXIS= 0, ORDER= 1
     ------------------------------------------

 -- VARIATIONAL SPACE WILL BE RESTRICTED TO PURE SPHERICAL HARMONICS ONLY --
 AFTER EXCLUDING CONTAMINANT COMBINATIONS FROM THE CARTESIAN GAUSSIAN BASIS
 SET, THE NUMBER OF SPHERICAL HARMONICS KEPT IN THE VARIATION SPACE IS  263

     DIMENSIONS OF THE SYMMETRY SUBSPACES ARE
 A   =  263

 ..... DONE SETTING UP THE RUN .....
 STEP CPU TIME =     0.06 TOTAL CPU TIME =        0.1 (    0.0 MIN)
 TOTAL WALL CLOCK TIME=        0.5 SECONDS, CPU UTILIZATION IS  12.77%

          ********************
          1 ELECTRON INTEGRALS
          ********************
 TIME TO DO ORDINARY INTEGRALS=      0.01
 TIME TO DO      ECP INTEGRALS=      0.25
 ...... END OF ONE-ELECTRON INTEGRALS ......
 STEP CPU TIME =     0.26 TOTAL CPU TIME =        0.3 (    0.0 MIN)
 TOTAL WALL CLOCK TIME=        0.9 SECONDS, CPU UTILIZATION IS  35.16%

          -------------
          GUESS OPTIONS
          -------------
          GUESS =HUCKEL            NORB  =       0          NORDER=       0
          MIX   =       F          PRTMO =       F          PUNMO =       F
          TOLZ  = 1.0E-08          TOLE  = 1.0E-05
          SYMDEN=       F          PURIFY=       F

 INITIAL GUESS ORBITALS GENERATED BY HUCKEL   ROUTINE.
 HUCKEL GUESS REQUIRES    745328 WORDS.

 STATISTICS FOR GENERATION OF SYMMETRY ORBITAL -Q- MATRIX
 NUMBER OF CARTESIAN ATOMIC ORBITALS=        324
 NUMBER OF SPHERICAL CONTAMINANTS DROPPED=    61
 NUMBER OF LINEARLY DEPENDENT MOS DROPPED=     0
 TOTAL NUMBER OF MOS IN VARIATION SPACE=     263

                    * * * * * WARNING * * * * *
 POSSIBLE LINEAR DEPENDENCE PROBLEMS DETECTED, INPUT QMTTOL= 1.0E-06,
 WITH     1 OVERLAP EIGENVALUES LYING BETWEEN 1.0E-05 AND QMTTOL.
 IF YOU EXPERIENCE SCF CONVERGENCE DIFFICULTIES WITH THE DENSITY ALMOST BUT
 NOT QUITE CONVERGED, YOU MAY NEED TO LOOSEN -QMTTOL- BY A FACTOR 5 TO 10.

 SYMMETRIES FOR INITIAL GUESS ORBITALS FOLLOW.  ALPHA SET(S).
     4 ORBITALS ARE OCCUPIED (    0 CORE ORBITALS).
     1=A        2=A        3=A        4=A        5=A        6=A        7=A   
     8=A        9=A       10=A       11=A       12=A       13=A       14=A   

 SYMMETRIES FOR INITIAL GUESS ORBITALS FOLLOW.   BETA SET(S).
     4 ORBITALS ARE OCCUPIED (    0 CORE ORBITALS).
     1=A        2=A        3=A        4=A        5=A        6=A        7=A   
     8=A        9=A       10=A       11=A       12=A       13=A       14=A   
 ...... END OF INITIAL ORBITAL SELECTION ......
 STEP CPU TIME =     1.39 TOTAL CPU TIME =        1.7 (    0.0 MIN)
 TOTAL WALL CLOCK TIME=        2.3 SECONDS, CPU UTILIZATION IS  73.08%

                    ----------------------
                    AO INTEGRAL TECHNOLOGY
                    ----------------------
     S,P,L SHELL ROTATED AXIS INTEGRALS, REPROGRAMMED BY
        KAZUYA ISHIMURA (IMS) AND JOSE SIERRA (SYNSTAR).
     S,P,D,L SHELL ROTATED AXIS INTEGRALS PROGRAMMED BY
        KAZUYA ISHIMURA (INSTITUTE FOR MOLECULAR SCIENCE).
     S,P,D,F,G SHELL TO TOTAL QUARTET ANGULAR MOMENTUM SUM 5,
        ERIC PROGRAM BY GRAHAM FLETCHER (ELORET AND NASA ADVANCED
        SUPERCOMPUTING DIVISION, AMES RESEARCH CENTER).
     S,P,D,F,G,L SHELL GENERAL RYS QUADRATURE PROGRAMMED BY
        MICHEL DUPUIS (PACIFIC NORTHWEST NATIONAL LABORATORY).

          --------------------
          2 ELECTRON INTEGRALS
          --------------------

 THE -PK- OPTION IS OFF, THE INTEGRALS ARE NOT IN SUPERMATRIX FORM.
 STORING   15000 INTEGRALS/RECORD ON DISK, USING 16 BYTES/INTEGRAL.
 TWO ELECTRON INTEGRAL EVALUATION REQUIRES  142575 WORDS OF MEMORY.
 II,JST,KST,LST =  1  1  1  1 NREC =         1 INTLOC =    1
 II,JST,KST,LST =  2  1  1  1 NREC =         1 INTLOC =    2
 II,JST,KST,LST =  3  1  1  1 NREC =         1 INTLOC =    7
 II,JST,KST,LST =  4  1  1  1 NREC =         1 INTLOC =   22
 II,JST,KST,LST =  5  1  1  1 NREC =         1 INTLOC =   56
 II,JST,KST,LST =  6  1  1  1 NREC =         1 INTLOC =  121
 II,JST,KST,LST =  7  1  1  1 NREC =         1 INTLOC =  220
 II,JST,KST,LST =  8  1  1  1 NREC =         1 INTLOC =  496
 II,JST,KST,LST =  9  1  1  1 NREC =         1 INTLOC = 1057
 II,JST,KST,LST = 10  1  1  1 NREC =         1 INTLOC = 2074
 II,JST,KST,LST = 11  1  1  1 NREC =         1 INTLOC = 3781
 II,JST,KST,LST = 12  1  1  1 NREC =         1 INTLOC = 9301
 II,JST,KST,LST = 13  1  1  1 NREC =         2 INTLOC = 5254
 II,JST,KST,LST = 14  1  1  1 NREC =         3 INTLOC = 9160
 II,JST,KST,LST = 15  1  1  1 NREC =         5 INTLOC = 9547
 II,JST,KST,LST = 16  1  1  1 NREC =        10 INTLOC =13688
 II,JST,KST,LST = 17  1  1  1 NREC =        20 INTLOC =  974
 II,JST,KST,LST = 18  1  1  1 NREC =        34 INTLOC = 9469
 II,JST,KST,LST = 19  1  1  1 NREC =        70 INTLOC = 1606
 II,JST,KST,LST = 20  1  1  1 NREC =       128 INTLOC =10936
 II,JST,KST,LST = 21  1  1  1 NREC =       167 INTLOC = 4801
 II,JST,KST,LST = 22  1  1  1 NREC =       207 INTLOC =  362
 II,JST,KST,LST = 23  1  1  1 NREC =       247 INTLOC =12937
 II,JST,KST,LST = 24  1  1  1 NREC =       289 INTLOC =12847
 II,JST,KST,LST = 25  1  1  1 NREC =       333 INTLOC =  416
 II,JST,KST,LST = 26  1  1  1 NREC =       469 INTLOC =11915
 II,JST,KST,LST = 27  1  1  1 NREC =       617 INTLOC =13451
 II,JST,KST,LST = 28  1  1  1 NREC =       777 INTLOC =13604
 II,JST,KST,LST = 29  1  1  1 NREC =       950 INTLOC = 5936
 II,JST,KST,LST = 30  1  1  1 NREC =      1335 INTLOC = 1202
 II,JST,KST,LST = 31  1  1  1 NREC =      1776 INTLOC = 8891
 II,JST,KST,LST = 32  1  1  1 NREC =      2279 INTLOC = 8756
 II,JST,KST,LST = 33  1  1  1 NREC =      3266 INTLOC =14696
 II,JST,KST,LST = 34  1  1  1 NREC =      4459 INTLOC =13084
 II,JST,KST,LST = 35  1  1  1 NREC =      4593 INTLOC = 6748
 II,JST,KST,LST = 36  1  1  1 NREC =      4729 INTLOC = 5850
 II,JST,KST,LST = 37  1  1  1 NREC =      4867 INTLOC =11952
 II,JST,KST,LST = 38  1  1  1 NREC =      5008 INTLOC =10470
 II,JST,KST,LST = 39  1  1  1 NREC =      5151 INTLOC =13410
 II,JST,KST,LST = 40  1  1  1 NREC =      5596 INTLOC = 4412
 II,JST,KST,LST = 41  1  1  1 NREC =      6064 INTLOC = 2083
 II,JST,KST,LST = 42  1  1  1 NREC =      6555 INTLOC = 5894
 II,JST,KST,LST = 43  1  1  1 NREC =      7032 INTLOC = 4533
 II,JST,KST,LST = 44  1  1  1 NREC =      8140 INTLOC = 1302
 II,JST,KST,LST = 45  1  1  1 NREC =      9355 INTLOC = 7589
 II,JST,KST,LST = 46  1  1  1 NREC =     10620 INTLOC = 1008
 II,JST,KST,LST = 47  1  1  1 NREC =     13097 INTLOC = 1846
 II,JST,KST,LST = 48  1  1  1 NREC =     15891 INTLOC = 3837
 II,JST,KST,LST = 49  1  1  1 NREC =     16214 INTLOC =13594
 II,JST,KST,LST = 50  1  1  1 NREC =     16542 INTLOC = 8113
 II,JST,KST,LST = 51  1  1  1 NREC =     16874 INTLOC =12810
 II,JST,KST,LST = 52  1  1  1 NREC =     17211 INTLOC = 7826
 II,JST,KST,LST = 53  1  1  1 NREC =     17551 INTLOC =  374
 II,JST,KST,LST = 54  1  1  1 NREC =     18598 INTLOC =14059
 II,JST,KST,LST = 55  1  1  1 NREC =     19687 INTLOC = 4840
 II,JST,KST,LST = 56  1  1  1 NREC =     20810 INTLOC = 4459
 II,JST,KST,LST = 57  1  1  1 NREC =     21829 INTLOC = 9772
 II,JST,KST,LST = 58  1  1  1 NREC =     24298 INTLOC = 3873
 II,JST,KST,LST = 59  1  1  1 NREC =     26940 INTLOC = 6748
 II,JST,KST,LST = 60  1  1  1 NREC =     29530 INTLOC =10399
 II,JST,KST,LST = 61  1  1  1 NREC =     34669 INTLOC =10281
 II,JST,KST,LST = 62  1  1  1 NREC =     40211 INTLOC = 2902
 II,JST,KST,LST = 63  1  1  1 NREC =     40851 INTLOC = 9625
 II,JST,KST,LST = 64  1  1  1 NREC =     41498 INTLOC = 3794
 II,JST,KST,LST = 65  1  1  1 NREC =     42152 INTLOC =10762
 II,JST,KST,LST = 66  1  1  1 NREC =     42813 INTLOC = 8617
 II,JST,KST,LST = 67  1  1  1 NREC =     43475 INTLOC = 7568
 II,JST,KST,LST = 68  1  1  1 NREC =     45518 INTLOC = 3539
 II,JST,KST,LST = 69  1  1  1 NREC =     47622 INTLOC = 5915
 II,JST,KST,LST = 70  1  1  1 NREC =     49765 INTLOC = 3530
 II,JST,KST,LST = 71  1  1  1 NREC =     51625 INTLOC = 6995
 II,JST,KST,LST = 72  1  1  1 NREC =     56282 INTLOC =12491
 II,JST,KST,LST = 73  1  1  1 NREC =     61187 INTLOC = 5321
 II,JST,KST,LST = 74  1  1  1 NREC =     65803 INTLOC = 1340
 II,JST,KST,LST = 75  1  1  1 NREC =     75088 INTLOC =12041
 TOTAL NUMBER OF NONZERO TWO-ELECTRON INTEGRALS =          1271852994
      84791 INTEGRAL RECORDS WERE STORED ON DISK FILE  8.
  ...... END OF TWO-ELECTRON INTEGRALS .....
 STEP CPU TIME =    52.90 TOTAL CPU TIME =       54.6 (    0.9 MIN)
 TOTAL WALL CLOCK TIME=      510.7 SECONDS, CPU UTILIZATION IS  10.69%

          ---------------------------
               RO-PBE SCF CALCULATION
          ---------------------------

     NUCLEAR ENERGY =         7.0352112604
     MAXIT =150     NPUNCH=  2     MULT=  1
     EXTRAP=T  DAMP=F  SHIFT=F  RSTRCT=F  DIIS=T  SOSCF=F
         DENSITY MATRIX CONVERGENCE THRESHOLD=  1.00E-05
     COARSE -> FINE DFT GRID SWITCH THRESHOLD=  3.00E-04 (SWITCH IN $DFT)
                   HF -> DFT SWITCH THRESHOLD=  5.00E-03 (SWOFF IN $DFT)
     ROHF CANONICALIZATION PARAMETERS
             C-C     O-O     V-V
     ALPHA -0.5000  0.5000  1.5000
     BETA   1.5000  0.5000 -0.5000
     MEMORY REQUIRED FOR UHF/ROHF ITERS=   1294862 WORDS.

 DFT CODE IS SWITCHING FROM THE FINE GRID NRAD= 96,  NLEB=  302
                      TO THE COARSE GRID NRAD0= 24, NLEB0=  110

     EXCHANGE FUNCTIONAL   =PBE       
     CORRELATION FUNCTIONAL=PBE       
     DFT THRESHOLD         =.276E-07
     GRID CHANGE THRESHOLD =.300E-03
 FOR AN EULER-MACLAURIN QUADRATURE USING  96 RADIAL POINTS:
 SMALLEST GAUSSIAN PRIMITIVE EXPONENT=        0.0254720000 OF TYPE -P-
 ON ATOM NUMBER   1 HAS RADIAL NORMALIZATION=  1.000000
  LARGEST GAUSSIAN PRIMITIVE EXPONENT=       23.8431850000 OF TYPE -S-
 ON ATOM NUMBER   2 HAS RADIAL NORMALIZATION=  1.000000
 DFT IS SWITCHED OFF, PERFORMING PURE SCF UNTIL SWOFF THRESHOLD IS REACHED.

 ITER EX      TOTAL ENERGY        E CHANGE  DENSITY CHANGE    DIIS ERROR
          * * *   INITIATING DIIS PROCEDURE   * * *
   1  0       -5.9395856763    -5.9395856763   0.648896350   0.284744780
   2  1       -6.0789841455    -0.1393984693   0.131221341   0.043025616
   3  2       -6.0859838279    -0.0069996824   0.020281239   0.012714759
   4  3       -6.0867117133    -0.0007278854   0.004460019   0.002810598
 CONVERGED TO SWOFF, SO DFT CALCULATION IS NOW SWITCHED ON.
          * * *   INITIATING DIIS PROCEDURE   * * *
   5  4       -6.2468651371    -0.1601534238   0.161504523   0.037602195
   6  5       -6.2555492815    -0.0086841444   0.065145785   0.014841450
   7  6       -6.2559161940    -0.0003669125   0.027890942   0.011371357
   8  7       -6.2562224260    -0.0003062320   0.001736209   0.000883706
   9  8       -6.2562248165    -0.0000023905   0.000560062   0.000036834
  10  9       -6.2562248283    -0.0000000119   0.000006667   0.000000528
 DFT CODE IS SWITCHING BACK TO THE FINE GRID
          * * *   INITIATING DIIS PROCEDURE   * * *
  11 10       -6.2565357518    -0.0003109234   0.099775112   0.019425202
  12 11       -6.2568186437    -0.0002828919   0.010550595   0.002110019
  13 12       -6.2568213081    -0.0000026644   0.004281325   0.001874451
  14 13       -6.2568293967    -0.0000080886   0.001280915   0.000034147
  15 14       -6.2568293959     0.0000000008   0.000103847   0.000003296
  16 15       -6.2568293956     0.0000000003   0.000012404   0.000000329
  17 16       -6.2568293956    -0.0000000000   0.000000548   0.000000016

          -----------------
          DENSITY CONVERGED
          -----------------
     TIME TO FORM FOCK OPERATORS=     351.9 SECONDS (      20.7 SEC/ITER)
     TIME TO SOLVE SCF EQUATIONS=      16.7 SECONDS (       1.0 SEC/ITER)

 FINAL RO-PBE ENERGY IS       -6.2568293956 AFTER  17 ITERATIONS
 DFT EXCHANGE + CORRELATION ENERGY =        -2.5784596281
 TOTAL ELECTRON NUMBER             =         7.9999998917

          --------------------
          SPIN SZ   =    0.000
          S-SQUARED =   -0.000
          --------------------

          ------------
          EIGENVECTORS
          ------------

                      1          2          3          4          5
                   -0.4991    -0.3130    -0.3130    -0.3130    -0.0166
                     A          A          A          A          A   
    1  SI 1  S    0.783011  -0.000101  -0.000111   0.000110   0.478863
    2  SI 1  S   -0.070497  -0.000324  -0.000362   0.000363  -0.037217
    3  SI 1  S    0.119738   0.000684   0.000777  -0.000791   0.180036
    4  SI 1  S    0.085063   0.009396   0.010562  -0.010656   2.849340
    5  SI 1  S   -0.014587   0.002067   0.002332  -0.002360   3.246976
    6  SI 1  X    0.000072   0.258826  -0.016451   0.280475   0.002486
    7  SI 1  Y    0.001134  -0.245899   0.172185   0.236704   0.004147
    8  SI 1  Z    0.002269  -0.136981  -0.341116   0.106239   0.008316
    9  SI 1  X    0.000004  -0.016395   0.000903  -0.017689   0.000149
   10  SI 1  Y    0.000069   0.015493  -0.010889  -0.014935   0.000234
   11  SI 1  Z    0.000138   0.008517   0.021488  -0.006806   0.000469
   12  SI 1  X   -0.000015   0.048368  -0.002626   0.052154  -0.000528
   13  SI 1  Y   -0.000241  -0.045683   0.032114   0.044037  -0.000772
   14  SI 1  Z   -0.000483  -0.025081  -0.063356   0.020099  -0.001549
   15  SI 1  X   -0.000023   0.031508  -0.001475   0.033918  -0.000638
   16  SI 1  Y   -0.000347  -0.029612   0.020913   0.028648  -0.001127
   17  SI 1  Z   -0.000694  -0.016061  -0.041101   0.013252  -0.002264
   18  SI 1  X    0.000003  -0.001253  -0.000001  -0.001364   0.000379
   19  SI 1  Y    0.000050   0.001158  -0.000842  -0.001171   0.000664
   20  SI 1  Z    0.000100   0.000582   0.001644  -0.000591   0.001337
   21  SI 1 XX   -0.000000  -0.000000   0.000000   0.000000   0.000000
   22  SI 1 YY   -0.000000  -0.000000   0.000001   0.000000   0.000000
   23  SI 1 ZZ    0.000000   0.000000  -0.000001  -0.000000  -0.000001
   24  SI 1 XY   -0.000007  -0.009120  -0.022864   0.007184  -0.000033
   25  SI 1 XZ   -0.000003  -0.016483   0.011564   0.015879  -0.000016
   26  SI 1 YZ   -0.000000   0.017397  -0.001029   0.018811  -0.000012
   27  SI 1 XX   -0.000000   0.000000  -0.000004  -0.000001  -0.000004
   28  SI 1 YY    0.000000   0.000001  -0.000004  -0.000001  -0.000002
   29  SI 1 ZZ    0.000000  -0.000001   0.000008   0.000002   0.000006
   30  SI 1 XY    0.000071  -0.012663  -0.031706   0.009944   0.000510
   31  SI 1 XZ    0.000035  -0.022862   0.016034   0.022014   0.000255
   32  SI 1 YZ    0.000002   0.024123  -0.001446   0.026084   0.000119
   33  SI 1 XX   -0.000000   0.000001  -0.000013  -0.000005  -0.000023
   34  SI 1 YY    0.000000   0.000001  -0.000014  -0.000005  -0.000014
   35  SI 1 ZZ    0.000000  -0.000002   0.000027   0.000010   0.000037
   36  SI 1 XY    0.000336  -0.011081  -0.027390   0.008447   0.001328
   37  SI 1 XZ    0.000168  -0.019778   0.013827   0.018976   0.000663
   38  SI 1 YZ    0.000009   0.020787  -0.001405   0.022513   0.000545
   39  SI 1 XX   -0.000000   0.000000  -0.000004  -0.000002  -0.000010
   40  SI 1 YY    0.000000   0.000000  -0.000004  -0.000002  -0.000007
   41  SI 1 ZZ    0.000000  -0.000001   0.000008   0.000003   0.000017
   42  SI 1 XY    0.000167  -0.004975  -0.012243   0.003753   0.000860
   43  SI 1 XZ    0.000083  -0.008848   0.006176   0.008472   0.000428
   44  SI 1 YZ    0.000005   0.009290  -0.000651   0.010058   0.000328
   45  SI 1 XXX  -0.000000  -0.003776   0.000224  -0.004081  -0.000011
   46  SI 1 YYY  -0.000003   0.003577  -0.002509  -0.003445  -0.000029
   47  SI 1 ZZZ  -0.000006   0.001980   0.004961  -0.001558  -0.000058
   48  SI 1 XXY   0.000002  -0.002400   0.001683   0.002311   0.000015
   49  SI 1 XXZ   0.000004  -0.001328  -0.003328   0.001045   0.000039
   50  SI 1 YYX   0.000000   0.002533  -0.000151   0.002738   0.000007
   51  SI 1 YYZ   0.000004  -0.001328  -0.003328   0.001045   0.000039
   52  SI 1 ZZX   0.000000   0.002533  -0.000150   0.002738   0.000008
   53  SI 1 ZZY   0.000002  -0.002399   0.001683   0.002311   0.000024
   54  SI 1 XYZ   0.013120   0.000024   0.000027  -0.000027   0.004453
   55  SI 1 XXX  -0.000002  -0.002671   0.000196  -0.002890  -0.000124
   56  SI 1 YYY  -0.000036   0.002547  -0.001776  -0.002431  -0.000138
   57  SI 1 ZZZ  -0.000071   0.001438   0.003518  -0.001069  -0.000276
   58  SI 1 XXY   0.000015  -0.001721   0.001192   0.001618  -0.000122
   59  SI 1 XXZ   0.000048  -0.000965  -0.002360   0.000717   0.000185
   60  SI 1 YYX   0.000001   0.001797  -0.000155   0.001932   0.000067
   61  SI 1 YYZ   0.000048  -0.000965  -0.002360   0.000718   0.000185
   62  SI 1 ZZX   0.000001   0.001787  -0.000107   0.001945   0.000100
   63  SI 1 ZZY   0.000033  -0.001696   0.001191   0.001644   0.000306
   64  SI 1 XYZ   0.048121   0.000380   0.000423  -0.000424   0.041737
   65  SI 1 XXX  -0.000001  -0.001540   0.000119  -0.001663  -0.000108
   66  SI 1 YYY  -0.000019   0.001469  -0.001024  -0.001395  -0.000067
   67  SI 1 ZZZ  -0.000039   0.000833   0.002022  -0.000608  -0.000136
   68  SI 1 XXY   0.000009  -0.000990   0.000687   0.000931  -0.000068
   69  SI 1 XXZ   0.000026  -0.000559  -0.001357   0.000408   0.000091
   70  SI 1 YYX   0.000000   0.001035  -0.000089   0.001113   0.000064
   71  SI 1 YYZ   0.000026  -0.000559  -0.001357   0.000408   0.000091
   72  SI 1 ZZX   0.000001   0.001031  -0.000070   0.001118   0.000081
   73  SI 1 ZZY   0.000017  -0.000980   0.000687   0.000941   0.000159
   74  SI 1 XYZ   0.003546   0.000228   0.000253  -0.000253   0.088756
   75  SI 1XXXX  -0.004703  -0.000012  -0.000014   0.000014  -0.001025
   76  SI 1YYYY  -0.004703  -0.000012  -0.000014   0.000014  -0.001026
   77  SI 1ZZZZ  -0.004703  -0.000012  -0.000014   0.000014  -0.001026
   78  SI 1XXXY  -0.000002   0.000389   0.000975  -0.000306   0.000002
   79  SI 1XXXZ  -0.000002   0.000701  -0.000493  -0.000679  -0.000013
   80  SI 1YYYX  -0.000002   0.000389   0.000975  -0.000306   0.000002
   81  SI 1YYYZ  -0.000000  -0.000740   0.000043  -0.000804  -0.000004
   82  SI 1ZZZX  -0.000000   0.000703  -0.000493  -0.000677   0.000015
   83  SI 1ZZZY  -0.000000  -0.000741   0.000047  -0.000803  -0.000002
   84  SI 1XXYY   0.004131   0.000011   0.000011  -0.000012   0.000900
   85  SI 1XXZZ   0.004131   0.000011   0.000013  -0.000012   0.000901
   86  SI 1YYZZ   0.004131   0.000011   0.000013  -0.000012   0.000901
   87  SI 1XXYZ   0.000000   0.001988  -0.000120   0.002155   0.000008
   88  SI 1YYXZ   0.000003  -0.001885   0.001323   0.001819  -0.000003
   89  SI 1ZZXY   0.000006  -0.001045  -0.002617   0.000821  -0.000005
   90  SI 1XXXX  -0.007407  -0.000072  -0.000079   0.000079  -0.010711
   91  SI 1YYYY  -0.007407  -0.000072  -0.000079   0.000079  -0.010710
   92  SI 1ZZZZ  -0.007407  -0.000072  -0.000080   0.000079  -0.010710
   93  SI 1XXXY  -0.000010   0.000550   0.001369  -0.000426  -0.000012
   94  SI 1XXXZ  -0.000009   0.000980  -0.000691  -0.000957  -0.000108
   95  SI 1YYYX  -0.000010   0.000550   0.001369  -0.000426  -0.000012
   96  SI 1YYYZ  -0.000000  -0.001035   0.000056  -0.001129  -0.000021
   97  SI 1ZZZX  -0.000001   0.000991  -0.000691  -0.000945   0.000096
   98  SI 1ZZZY  -0.000000  -0.001040   0.000077  -0.001124  -0.000005
   99  SI 1XXYY   0.006505   0.000063   0.000069  -0.000069   0.009408
  100  SI 1XXZZ   0.006505   0.000063   0.000070  -0.000069   0.009407
  101  SI 1YYZZ   0.006505   0.000063   0.000070  -0.000069   0.009406
  102  SI 1XXYZ   0.000001   0.002784  -0.000179   0.003023   0.000034
  103  SI 1YYXZ   0.000013  -0.002645   0.001854   0.002551   0.000016
  104  SI 1ZZXY   0.000027  -0.001475  -0.003673   0.001144   0.000032
  105  H  2  S    0.326845  -0.140788  -0.211526   0.718205  -0.065383
  106  H  2  S    0.000092   0.002409   0.003591  -0.012113  -0.871413
  107  H  2  S   -0.102095   0.023004   0.035201  -0.124429  -1.087524
  108  H  2  S   -0.140353   0.017397   0.026342  -0.091002  -0.133073
  109  H  2  S   -0.023328   0.005475   0.008225  -0.027920   0.007645
  110  H  2  X    0.005412  -0.001399  -0.000984   0.003373   0.117701
  111  H  2  Y    0.005409   0.000138  -0.001548   0.003497   0.117611
  112  H  2  Z    0.005405  -0.000202   0.000031   0.003889   0.117586
  113  H  2  X    0.004885   0.007689   0.005319  -0.014285   0.015812
  114  H  2  Y    0.004880  -0.000025   0.008194  -0.014956   0.015735
  115  H  2  Z    0.004875   0.001647   0.000356  -0.016941   0.015645
  116  H  2  X   -0.001839   0.003466   0.001861  -0.004420  -0.003873
  117  H  2  Y   -0.001839  -0.000707   0.003411  -0.004781  -0.003867
  118  H  2  Z   -0.001839   0.000201  -0.000829  -0.005852  -0.003862
  119  H  2  X   -0.000975   0.000617   0.000318  -0.000738  -0.000878
  120  H  2  Y   -0.000975  -0.000143   0.000600  -0.000804  -0.000879
  121  H  2  Z   -0.000975   0.000022  -0.000172  -0.000999  -0.000880
  122  H  2 XX   -0.000005   0.001154   0.000177   0.000278  -0.000025
  123  H  2 YY   -0.000000  -0.000788   0.000900   0.000111  -0.000004
  124  H  2 ZZ    0.000005  -0.000366  -0.001077  -0.000389   0.000029
  125  H  2 XY   -0.000082  -0.000951  -0.001645   0.003702  -0.011610
  126  H  2 XZ   -0.000083  -0.001137  -0.000763   0.003928  -0.011607
  127  H  2 YZ   -0.000085  -0.000265  -0.001091   0.004006  -0.011592
  128  H  2 XX   -0.000001  -0.000895  -0.000137  -0.000215  -0.000000
  129  H  2 YY   -0.000000   0.000611  -0.000696  -0.000085  -0.000001
  130  H  2 ZZ    0.000001   0.000283   0.000833   0.000301   0.000001
  131  H  2 XY    0.000199  -0.000669  -0.001509   0.001201  -0.000867
  132  H  2 XZ    0.000199  -0.001077   0.000396   0.001682  -0.000863
  133  H  2 YZ    0.000199   0.000799  -0.000301   0.001845  -0.000861
  134  H  2 XX    0.000000  -0.000084  -0.000013  -0.000020   0.000000
  135  H  2 YY    0.000000   0.000057  -0.000066  -0.000008   0.000000
  136  H  2 ZZ   -0.000000   0.000027   0.000078   0.000028  -0.000000
  137  H  2 XY    0.000070  -0.000066  -0.000097   0.000348   0.000187
  138  H  2 XZ    0.000070  -0.000064  -0.000105   0.000346   0.000186
  139  H  2 YZ    0.000070  -0.000072  -0.000102   0.000345   0.000186
  140  H  2 XXX   0.000360  -0.000523  -0.000033  -0.000314  -0.000700
  141  H  2 YYY   0.000359   0.000412  -0.000383  -0.000233  -0.000696
  142  H  2 ZZZ   0.000358   0.000210   0.000568   0.000009  -0.000696
  143  H  2 XXY  -0.000241   0.000015   0.000496   0.000284   0.000460
  144  H  2 XXZ  -0.000240   0.000232  -0.000520   0.000027   0.000466
  145  H  2 YYX  -0.000242   0.000270   0.000400   0.000306   0.000467
  146  H  2 YYZ  -0.000240  -0.000514  -0.000243  -0.000038   0.000468
  147  H  2 ZZX  -0.000242   0.000432  -0.000355   0.000115   0.000471
  148  H  2 ZZY  -0.000241  -0.000568   0.000017   0.000029   0.000473
  149  H  2 XYZ  -0.000420   0.000111   0.000163  -0.000534   0.002174
  150  H  2 XXX   0.000037  -0.000010  -0.000020   0.000068  -0.000029
  151  H  2 YYY   0.000037  -0.000015  -0.000018   0.000068  -0.000029
  152  H  2 ZZZ   0.000038  -0.000014  -0.000023   0.000066  -0.000028
  153  H  2 XXY  -0.000025   0.000056   0.000049  -0.000025   0.000019
  154  H  2 XXZ  -0.000025   0.000067  -0.000006  -0.000039   0.000019
  155  H  2 YYX  -0.000025  -0.000006   0.000072  -0.000031   0.000019
  156  H  2 YYZ  -0.000025  -0.000048   0.000037  -0.000049   0.000019
  157  H  2 ZZX  -0.000025   0.000020  -0.000046  -0.000061   0.000020
  158  H  2 ZZY  -0.000025  -0.000035  -0.000025  -0.000065   0.000019
  159  H  2 XYZ  -0.000067   0.000018   0.000027  -0.000089  -0.000057
  160  H  3  S    0.326851  -0.172124  -0.572832  -0.471832  -0.065306
  161  H  3  S    0.000299   0.002841   0.009608   0.008535  -0.868729
  162  H  3  S   -0.101279   0.028150   0.098599   0.087047  -1.081912
  163  H  3  S   -0.140059   0.021292   0.072364   0.061412  -0.131027
  164  H  3  S   -0.023343   0.006695   0.022271   0.018320   0.007477
  165  H  3  X   -0.005276  -0.000029   0.003326   0.002693  -0.116356
  166  H  3  Y   -0.005278   0.001509   0.002762   0.002817  -0.116439
  167  H  3  Z    0.005285  -0.000334  -0.002208  -0.003933   0.117055
  168  H  3  X   -0.004814  -0.000583  -0.015080  -0.007636  -0.015055
  169  H  3  Y   -0.004818  -0.008296  -0.012205  -0.008307  -0.015128
  170  H  3  Z    0.004824   0.002476   0.009667   0.013522   0.015425
  171  H  3  X    0.001839   0.000525  -0.005502  -0.002098   0.003849
  172  H  3  Y    0.001839  -0.003648  -0.003951  -0.002459   0.003854
  173  H  3  Z   -0.001840   0.000494   0.002558   0.005304  -0.003872
  174  H  3  X    0.000975   0.000113  -0.000948  -0.000342   0.000881
  175  H  3  Y    0.000975  -0.000647  -0.000666  -0.000408   0.000880
  176  H  3  Z   -0.000975   0.000073   0.000413   0.000924  -0.000878
  177  H  3 XX    0.000001  -0.000802   0.000704  -0.000559   0.000074
  178  H  3 YY   -0.000004   0.001140  -0.000019  -0.000392   0.000056
  179  H  3 ZZ    0.000004  -0.000338  -0.000685   0.000952  -0.000130
  180  H  3 XY   -0.000063  -0.001101  -0.003397  -0.002076  -0.011302
  181  H  3 XZ    0.000072   0.000443   0.003117   0.002645   0.011469
  182  H  3 YZ    0.000071   0.001314   0.002789   0.002723   0.011482
  183  H  3 XX    0.000000   0.000625  -0.000539   0.000428   0.000010
  184  H  3 YY   -0.000001  -0.000881   0.000020   0.000297   0.000010
  185  H  3 ZZ    0.000000   0.000255   0.000519  -0.000725  -0.000020
  186  H  3 XY    0.000205  -0.000704  -0.001908  -0.000112  -0.000804
  187  H  3 XZ   -0.000204  -0.000713   0.001284   0.001387   0.000823
  188  H  3 YZ   -0.000204   0.001162   0.000587   0.001549   0.000825
  189  H  3 XX   -0.000000   0.000059  -0.000051   0.000040  -0.000001
  190  H  3 YY    0.000000  -0.000083   0.000002   0.000028  -0.000001
  191  H  3 ZZ   -0.000000   0.000024   0.000049  -0.000069   0.000003
  192  H  3 XY    0.000069  -0.000081  -0.000273  -0.000233   0.000179
  193  H  3 XZ   -0.000069   0.000087   0.000276   0.000228  -0.000181
  194  H  3 YZ   -0.000069   0.000079   0.000279   0.000227  -0.000182
  195  H  3 XXX  -0.000360  -0.000429   0.000195  -0.000389   0.000679
  196  H  3 YYY  -0.000362   0.000507  -0.000155  -0.000307   0.000683
  197  H  3 ZZZ   0.000358   0.000202   0.000468  -0.000330  -0.000674
  198  H  3 XXY   0.000243  -0.000249  -0.000158   0.000489  -0.000441
  199  H  3 XXZ  -0.000240  -0.000508  -0.000175   0.000189   0.000454
  200  H  3 YYX   0.000242   0.000006  -0.000254   0.000511  -0.000434
  201  H  3 YYZ  -0.000240   0.000237  -0.000452   0.000253   0.000451
  202  H  3 ZZX   0.000241   0.000569  -0.000007   0.000010  -0.000477
  203  H  3 ZZY   0.000242  -0.000432   0.000366  -0.000077  -0.000475
  204  H  3 XYZ  -0.000422   0.000133   0.000427   0.000336   0.002133
  205  H  3 XXX  -0.000037   0.000018   0.000052   0.000045   0.000029
  206  H  3 YYY  -0.000037   0.000013   0.000054   0.000045   0.000029
  207  H  3 ZZZ   0.000038  -0.000017  -0.000056  -0.000042  -0.000027
  208  H  3 XXY   0.000025   0.000005  -0.000077   0.000014  -0.000019
  209  H  3 XXZ  -0.000025  -0.000046   0.000059   0.000023   0.000018
  210  H  3 YYX   0.000025  -0.000056  -0.000054   0.000009  -0.000019
  211  H  3 YYZ  -0.000025   0.000069   0.000016   0.000033   0.000018
  212  H  3 ZZX   0.000025   0.000031  -0.000015  -0.000070  -0.000020
  213  H  3 ZZY   0.000025  -0.000023   0.000005  -0.000074  -0.000021
  214  H  3 XYZ  -0.000067   0.000022   0.000071   0.000059  -0.000056
  215  H  4  S    0.326857  -0.424674   0.608233  -0.173486  -0.065252
  216  H  4  S    0.000494   0.007080  -0.010951   0.003181  -0.866981
  217  H  4  S   -0.100513   0.072529  -0.111375   0.033504  -1.078185
  218  H  4  S   -0.139780   0.053469  -0.078893   0.023032  -0.129867
  219  H  4  S   -0.023357   0.016511  -0.023619   0.006731   0.007355
  220  H  4  X   -0.005164   0.001547  -0.004448   0.000648  -0.115990
  221  H  4  Y    0.005160  -0.001585   0.003939  -0.002319   0.116109
  222  H  4  Z   -0.005153   0.002767  -0.003404   0.001202  -0.115488
  223  H  4  X   -0.004765  -0.007089   0.015153  -0.000042  -0.014985
  224  H  4  Y    0.004760   0.007294  -0.012782   0.007869   0.014929
  225  H  4  Z   -0.004755  -0.013105   0.010206  -0.002663  -0.014656
  226  H  4  X    0.001840  -0.001843   0.005570   0.000698   0.003854
  227  H  4  Y   -0.001840   0.001956  -0.004270   0.003581  -0.003853
  228  H  4  Z    0.001839  -0.005110   0.002877  -0.000736   0.003835
  229  H  4  X    0.000975  -0.000296   0.000961   0.000140   0.000879
  230  H  4  Y   -0.000975   0.000316  -0.000725   0.000637  -0.000880
  231  H  4  Z    0.000975  -0.000890   0.000472  -0.000121   0.000882
  232  H  4 XX   -0.000001  -0.000528  -0.000627  -0.000906  -0.000072
  233  H  4 YY    0.000005  -0.000477  -0.000013   0.001127  -0.000054
  234  H  4 ZZ   -0.000004   0.001005   0.000639  -0.000220   0.000127
  235  H  4 XY    0.000061   0.001860  -0.003488   0.000981   0.011373
  236  H  4 XZ   -0.000052  -0.002515   0.003202  -0.000412  -0.011205
  237  H  4 YZ    0.000053   0.002538  -0.002944   0.001272   0.011234
  238  H  4 XX   -0.000000   0.000406   0.000479   0.000683  -0.000011
  239  H  4 YY    0.000001   0.000365   0.000012  -0.000852  -0.000009
  240  H  4 ZZ   -0.000000  -0.000771  -0.000490   0.000169   0.000019
  241  H  4 XY   -0.000208  -0.000025  -0.001924   0.000578   0.000799
  242  H  4 XZ    0.000209  -0.001391   0.001298   0.000696  -0.000782
  243  H  4 YZ   -0.000209   0.001441  -0.000717   0.001220   0.000779
  244  H  4 XX    0.000000   0.000038   0.000045   0.000065   0.000001
  245  H  4 YY   -0.000000   0.000035   0.000001  -0.000081   0.000001
  246  H  4 ZZ    0.000000  -0.000073  -0.000046   0.000016  -0.000003
  247  H  4 XY   -0.000069   0.000209  -0.000292   0.000084  -0.000178
  248  H  4 XZ    0.000069  -0.000203   0.000295  -0.000089   0.000176
  249  H  4 YZ   -0.000069   0.000202  -0.000298   0.000081  -0.000175
  250  H  4 XXX  -0.000361  -0.000358  -0.000141  -0.000475   0.000658
  251  H  4 YYY   0.000359   0.000334  -0.000149  -0.000486  -0.000662
  252  H  4 ZZZ  -0.000363   0.000376   0.000462  -0.000151   0.000670
  253  H  4 XXY  -0.000241  -0.000515  -0.000138   0.000199   0.000458
  254  H  4 XXZ   0.000244  -0.000242  -0.000195   0.000479  -0.000445
  255  H  4 YYX   0.000241   0.000522   0.000218   0.000068  -0.000464
  256  H  4 YYZ   0.000244  -0.000262  -0.000424  -0.000276  -0.000454
  257  H  4 ZZX   0.000242  -0.000041  -0.000028   0.000570  -0.000420
  258  H  4 ZZY  -0.000241   0.000067   0.000338   0.000452   0.000430
  259  H  4 XYZ  -0.000425   0.000317  -0.000435   0.000118   0.002101
  260  H  4 XXX  -0.000037   0.000041  -0.000055   0.000018   0.000029
  261  H  4 YYY   0.000038  -0.000041   0.000056  -0.000013  -0.000028
  262  H  4 ZZZ  -0.000037   0.000037  -0.000058   0.000016   0.000030
  263  H  4 XXY  -0.000025  -0.000018  -0.000075  -0.000011   0.000019
  264  H  4 XXZ   0.000025  -0.000023   0.000057   0.000048  -0.000020
  265  H  4 YYX   0.000025   0.000016   0.000056  -0.000052  -0.000020
  266  H  4 YYZ   0.000025  -0.000026   0.000021  -0.000070  -0.000020
  267  H  4 ZZX   0.000025  -0.000071   0.000018   0.000027  -0.000019
  268  H  4 ZZY  -0.000025   0.000073  -0.000001   0.000029   0.000018
  269  H  4 XYZ  -0.000066   0.000053  -0.000076   0.000021  -0.000056
  270  H  5  S    0.326862   0.737602   0.176141  -0.072902  -0.065223
  271  H  5  S    0.000677  -0.013192  -0.003223   0.001387  -0.866216
  272  H  5  S   -0.099794  -0.133960  -0.033997   0.015569  -1.076373
  273  H  5  S   -0.139516  -0.095329  -0.023356   0.010114  -0.129595
  274  H  5  S   -0.023371  -0.028647  -0.006834   0.002824   0.007279
  275  H  5  X    0.005042   0.004458   0.001625  -0.001792   0.115479
  276  H  5  Y   -0.005047  -0.004495  -0.002134   0.000121  -0.115353
  277  H  5  Z   -0.005050  -0.004848  -0.000476   0.000536  -0.115290
  278  H  5  X    0.004700  -0.014791  -0.004591   0.005961   0.014644
  279  H  5  Y   -0.004705   0.014996   0.006963   0.001866  -0.014697
  280  H  5  Z   -0.004710   0.016654  -0.000803  -0.000100  -0.014736
  281  H  5  X   -0.001840  -0.004765  -0.001774   0.003000  -0.003833
  282  H  5  Y    0.001840   0.004878   0.003074   0.001279   0.003834
  283  H  5  Z    0.001840   0.005786  -0.001173   0.000207   0.003835
  284  H  5  X   -0.000975  -0.000804  -0.000309   0.000540  -0.000882
  285  H  5  Y    0.000974   0.000824   0.000544   0.000237   0.000882
  286  H  5  Z    0.000974   0.000989  -0.000226   0.000042   0.000881
  287  H  5 XX    0.000006   0.000177  -0.000263   0.001185   0.000012
  288  H  5 YY   -0.000000   0.000126  -0.000877  -0.000848  -0.000004
  289  H  5 ZZ   -0.000006  -0.000302   0.001140  -0.000337  -0.000008
  290  H  5 XY    0.000044  -0.003779  -0.001387   0.000492   0.011185
  291  H  5 XZ    0.000043  -0.003960  -0.000531   0.000711   0.011165
  292  H  5 YZ   -0.000041   0.003983   0.000789   0.000149  -0.011133
  293  H  5 XX    0.000001  -0.000136   0.000197  -0.000895   0.000001
  294  H  5 YY   -0.000000  -0.000095   0.000664   0.000640  -0.000001
  295  H  5 ZZ   -0.000001   0.000231  -0.000860   0.000255  -0.000000
  296  H  5 XY   -0.000213  -0.001309  -0.001447   0.000467   0.000770
  297  H  5 XZ   -0.000213  -0.001715   0.000454   0.000947   0.000772
  298  H  5 YZ    0.000212   0.001765   0.000127   0.000969  -0.000774
  299  H  5 XX   -0.000000  -0.000013   0.000019  -0.000085  -0.000000
  300  H  5 YY    0.000000  -0.000009   0.000063   0.000061   0.000000
  301  H  5 ZZ    0.000000   0.000022  -0.000082   0.000024   0.000000
  302  H  5 XY   -0.000068  -0.000359  -0.000081   0.000035  -0.000174
  303  H  5 XZ   -0.000068  -0.000357  -0.000089   0.000033  -0.000174
  304  H  5 YZ    0.000068   0.000357   0.000087  -0.000041   0.000174
  305  H  5 XXX   0.000361  -0.000273   0.000077  -0.000538  -0.000654
  306  H  5 YYY  -0.000362   0.000248  -0.000367  -0.000422   0.000651
  307  H  5 ZZZ  -0.000363   0.000046   0.000586  -0.000180   0.000651
  308  H  5 XXY   0.000243  -0.000257   0.000506   0.000000  -0.000448
  309  H  5 XXZ   0.000244  -0.000041  -0.000508  -0.000257  -0.000441
  310  H  5 YYX  -0.000242   0.000264  -0.000427   0.000266   0.000442
  311  H  5 YYZ   0.000244  -0.000021  -0.000279   0.000498  -0.000432
  312  H  5 ZZX  -0.000242   0.000103   0.000323   0.000456   0.000435
  313  H  5 ZZY   0.000243  -0.000076  -0.000014   0.000566  -0.000425
  314  H  5 XYZ  -0.000427  -0.000530  -0.000120   0.000045   0.002078
  315  H  5 XXX   0.000037   0.000069   0.000015  -0.000004  -0.000028
  316  H  5 YYY  -0.000037  -0.000069  -0.000014   0.000009   0.000029
  317  H  5 ZZZ  -0.000037  -0.000068  -0.000019   0.000007   0.000030
  318  H  5 XXY   0.000025   0.000032   0.000050  -0.000050  -0.000020
  319  H  5 XXZ   0.000025   0.000044  -0.000005  -0.000064  -0.000020
  320  H  5 YYX  -0.000025  -0.000034  -0.000069  -0.000012   0.000019
  321  H  5 YYZ   0.000025   0.000047   0.000031   0.000054  -0.000020
  322  H  5 ZZX  -0.000025  -0.000059   0.000048   0.000017   0.000018
  323  H  5 ZZY   0.000025   0.000060  -0.000031   0.000039  -0.000019
  324  H  5 XYZ  -0.000066  -0.000092  -0.000022   0.000009  -0.000056

                      6          7          8          9         10
                   -0.0012    -0.0012    -0.0012     0.0291     0.0291
                     A          A          A          A          A   
    1  SI 1  S    0.000160  -0.000172  -0.000152  -0.000089  -0.000094
    2  SI 1  S    0.000192  -0.000182  -0.000118  -0.000101  -0.000117
    3  SI 1  S    0.000513  -0.000712  -0.000919  -0.000577  -0.000535
    4  SI 1  S   -0.014251   0.014569   0.011584   0.010731   0.010528
    5  SI 1  S   -0.004302   0.004386   0.003459   0.003985   0.003850
    6  SI 1  X   -0.288380   0.102768  -0.279238   1.216370   0.061510
    7  SI 1  Y   -0.291156  -0.182054   0.232806   1.199924  -0.767973
    8  SI 1  Z   -0.062906   0.357330   0.196024   0.522635   1.614132
    9  SI 1  X   -0.002233   0.000818  -0.002116   0.057387   0.002895
   10  SI 1  Y   -0.002256  -0.001469   0.001758   0.056628  -0.036262
   11  SI 1  Z   -0.000400   0.002679   0.001432   0.024656   0.076182
   12  SI 1  X    0.017583  -0.006315   0.016923  -0.196138  -0.009883
   13  SI 1  Y    0.017762   0.011271  -0.014088  -0.193553   0.123945
   14  SI 1  Z    0.003603  -0.021562  -0.011709  -0.084278  -0.260399
   15  SI 1  X    0.002587  -0.000878   0.002070  -0.405678  -0.020412
   16  SI 1  Y    0.002644   0.001984  -0.001603  -0.400257   0.256157
   17  SI 1  Z    0.000171  -0.002576  -0.000980  -0.174419  -0.538269
   18  SI 1  X   -1.035524   0.366884  -1.005538  -0.497609  -0.025364
   19  SI 1  Y   -1.045522  -0.649835   0.838403  -0.490535   0.313323
   20  SI 1  Z   -0.232122   1.288809   0.708686  -0.214197  -0.660131
   21  SI 1 XX    0.000001   0.000002  -0.000000  -0.000000   0.000001
   22  SI 1 YY    0.000001   0.000002  -0.000000  -0.000000   0.000001
   23  SI 1 ZZ   -0.000002  -0.000004   0.000000   0.000001  -0.000002
   24  SI 1 XY    0.006882  -0.038232  -0.021033  -0.001465  -0.004523
   25  SI 1 XZ    0.031006   0.019273  -0.024878  -0.003363   0.002149
   26  SI 1 YZ    0.030711  -0.010887   0.029834  -0.003410  -0.000173
   27  SI 1 XX   -0.000008  -0.000016   0.000001   0.000001  -0.000010
   28  SI 1 YY   -0.000007  -0.000015   0.000000   0.000004  -0.000012
   29  SI 1 ZZ    0.000015   0.000031  -0.000002  -0.000005   0.000022
   30  SI 1 XY    0.013570  -0.074915  -0.041189  -0.004564  -0.013888
   31  SI 1 XZ    0.060695   0.037734  -0.048743  -0.010327   0.006578
   32  SI 1 YZ    0.060097  -0.021239   0.058488  -0.010467  -0.000501
   33  SI 1 XX   -0.000040  -0.000074   0.000006   0.000004  -0.000058
   34  SI 1 YY   -0.000036  -0.000070  -0.000001   0.000023  -0.000074
   35  SI 1 ZZ    0.000075   0.000144  -0.000005  -0.000027   0.000132
   36  SI 1 XY    0.001986  -0.010552  -0.006128   0.004249   0.013289
   37  SI 1 XZ    0.008234   0.005163  -0.007039   0.009975  -0.006469
   38  SI 1 YZ    0.008147  -0.002977   0.008385   0.010023   0.000389
   39  SI 1 XX   -0.000016  -0.000030   0.000001  -0.000003  -0.000037
   40  SI 1 YY   -0.000016  -0.000029  -0.000001   0.000015  -0.000053
   41  SI 1 ZZ    0.000032   0.000059  -0.000000  -0.000012   0.000090
   42  SI 1 XY   -0.004825   0.026944   0.014542  -0.087621  -0.270021
   43  SI 1 XZ   -0.022108  -0.013723   0.017374  -0.200622   0.128119
   44  SI 1 YZ   -0.021891   0.007652  -0.020904  -0.203569  -0.010432
   45  SI 1 XXX  -0.003874   0.001365  -0.003775   0.002310   0.000112
   46  SI 1 YYY  -0.003914  -0.002435   0.003144   0.002280  -0.001456
   47  SI 1 ZZZ  -0.000879   0.004833   0.002653   0.001001   0.003066
   48  SI 1 XXY   0.002624   0.001634  -0.002110  -0.001528   0.000977
   49  SI 1 XXZ   0.000590  -0.003242  -0.001780  -0.000672  -0.002057
   50  SI 1 YYX   0.002598  -0.000918   0.002532  -0.001549  -0.000076
   51  SI 1 YYZ   0.000590  -0.003242  -0.001780  -0.000672  -0.002057
   52  SI 1 ZZX   0.002600  -0.000913   0.002532  -0.001550  -0.000074
   53  SI 1 ZZY   0.002627   0.001632  -0.002108  -0.001530   0.000976
   54  SI 1 XYZ   0.000009  -0.000014  -0.000020  -0.000011  -0.000009
   55  SI 1 XXX   0.019152  -0.006751   0.018481  -0.015461  -0.000750
   56  SI 1 YYY   0.019334   0.011989  -0.015395  -0.015257   0.009761
   57  SI 1 ZZZ   0.004276  -0.023746  -0.012974  -0.006642  -0.020481
   58  SI 1 XXY  -0.013043  -0.007997   0.010286   0.010276  -0.006530
   59  SI 1 XXZ  -0.002867   0.015928   0.008705   0.004457   0.013740
   60  SI 1 YYX  -0.012903   0.004410  -0.012398   0.010395   0.000447
   61  SI 1 YYZ  -0.002870   0.015931   0.008701   0.004454   0.013739
   62  SI 1 ZZX  -0.012792   0.004647  -0.012398   0.010349   0.000559
   63  SI 1 ZZY  -0.012896  -0.008088   0.010369   0.010193  -0.006566
   64  SI 1 XYZ  -0.000460   0.000484   0.000413   0.000315   0.000325
   65  SI 1 XXX   0.047161  -0.016648   0.045700   0.055048   0.002843
   66  SI 1 YYY   0.047620   0.029558  -0.038082   0.054255  -0.034669
   67  SI 1 ZZZ   0.010590  -0.058638  -0.032144   0.023674   0.073036
   68  SI 1 XXY  -0.031984  -0.019804   0.025523  -0.036370   0.023266
   69  SI 1 XXZ  -0.007103   0.039335   0.021564  -0.015880  -0.048993
   70  SI 1 YYX  -0.031667   0.011103  -0.030656  -0.036914  -0.001944
   71  SI 1 YYZ  -0.007105   0.039336   0.021561  -0.015882  -0.048994
   72  SI 1 ZZX  -0.031607   0.011233  -0.030657  -0.036941  -0.001871
   73  SI 1 ZZY  -0.031905  -0.019852   0.025570  -0.036421   0.023248
   74  SI 1 XYZ  -0.000424   0.000459   0.000412   0.000343   0.000346
   75  SI 1XXXX   0.000009  -0.000008  -0.000007  -0.000005  -0.000005
   76  SI 1YYYY   0.000009  -0.000008  -0.000007  -0.000005  -0.000005
   77  SI 1ZZZZ   0.000008  -0.000011  -0.000007  -0.000005  -0.000006
   78  SI 1XXXY  -0.000004   0.000010   0.000004   0.000116   0.000353
   79  SI 1XXXZ  -0.000014  -0.000001   0.000001   0.000268  -0.000167
   80  SI 1YYYX  -0.000004   0.000010   0.000004   0.000116   0.000353
   81  SI 1YYYZ  -0.000013  -0.000006  -0.000005   0.000271   0.000011
   82  SI 1ZZZX  -0.000005  -0.000007   0.000006   0.000262  -0.000169
   83  SI 1ZZZY  -0.000006   0.000010  -0.000005   0.000268   0.000017
   84  SI 1XXYY  -0.000009   0.000005   0.000006   0.000005   0.000003
   85  SI 1XXZZ  -0.000007   0.000009   0.000006   0.000004   0.000006
   86  SI 1YYZZ  -0.000007   0.000010   0.000006   0.000004   0.000006
   87  SI 1XXYZ   0.000026  -0.000005   0.000013  -0.000724  -0.000037
   88  SI 1YYXZ   0.000025   0.000011  -0.000009  -0.000711   0.000451
   89  SI 1ZZXY   0.000010  -0.000026  -0.000011  -0.000311  -0.000948
   90  SI 1XXXX   0.000104  -0.000114  -0.000103  -0.000074  -0.000077
   91  SI 1YYYY   0.000104  -0.000114  -0.000104  -0.000074  -0.000078
   92  SI 1ZZZZ   0.000105  -0.000112  -0.000104  -0.000074  -0.000075
   93  SI 1XXXY   0.000291  -0.001641  -0.000899  -0.003452  -0.010653
   94  SI 1XXXZ   0.001297   0.000855  -0.001090  -0.007898   0.005073
   95  SI 1YYYX   0.000290  -0.001640  -0.000901  -0.003453  -0.010653
   96  SI 1YYYZ   0.001292  -0.000524   0.001285  -0.008016  -0.000430
   97  SI 1ZZZX   0.001367   0.000811  -0.001052  -0.007936   0.005056
   98  SI 1ZZZY   0.001344  -0.000413   0.001285  -0.008037  -0.000377
   99  SI 1XXYY  -0.000090   0.000102   0.000091   0.000065   0.000071
  100  SI 1XXZZ  -0.000092   0.000099   0.000091   0.000066   0.000065
  101  SI 1YYZZ  -0.000092   0.000098   0.000091   0.000065   0.000066
  102  SI 1XXYZ  -0.003537   0.001256  -0.003449   0.021538   0.001083
  103  SI 1YYXZ  -0.003574  -0.002236   0.002875   0.021243  -0.013589
  104  SI 1ZZXY  -0.000779   0.004403   0.002415   0.009264   0.028584
  105  H  2  S    0.314704  -0.136912  -0.073750   0.010281   0.003178
  106  H  2  S    1.791413  -0.779056  -0.419475  -0.954206  -0.294488
  107  H  2  S    0.160185  -0.071551  -0.039473  -0.174033  -0.055662
  108  H  2  S    0.130648  -0.057241  -0.030991  -0.145988  -0.045455
  109  H  2  S   -0.000890   0.000380   0.000196   0.015645   0.004831
  110  H  2  X    0.024587  -0.019948  -0.147570   0.111919   0.048941
  111  H  2  Y    0.023447  -0.135661   0.062423   0.112662   0.086091
  112  H  2  Z    0.116024   0.085086   0.047609   0.142946  -0.020590
  113  H  2  X   -0.010011   0.001742  -0.037368  -0.024384  -0.004905
  114  H  2  Y   -0.010334  -0.030607   0.021414  -0.024241   0.001917
  115  H  2  Z    0.015533   0.031161   0.017255  -0.018675  -0.017624
  116  H  2  X   -0.002767   0.000749  -0.006233  -0.000103  -0.001200
  117  H  2  Y   -0.002821  -0.004859   0.003938  -0.000167  -0.004286
  118  H  2  Z    0.001663   0.005828   0.003226  -0.002686   0.004578
  119  H  2  X    0.000275  -0.000235  -0.001776  -0.001450  -0.000432
  120  H  2  Y    0.000261  -0.001628   0.000752  -0.001449  -0.000390
  121  H  2  Z    0.001375   0.001029   0.000574  -0.001414  -0.000512
  122  H  2 XX    0.002509  -0.000291   0.011286   0.000395  -0.000403
  123  H  2 YY    0.002605   0.009366  -0.006264   0.000372  -0.001804
  124  H  2 ZZ   -0.005115  -0.009076  -0.005022  -0.000767   0.002208
  125  H  2 XY   -0.000595   0.010275   0.005636  -0.001896  -0.007219
  126  H  2 XZ   -0.007462  -0.006096   0.006743  -0.004973   0.003630
  127  H  2 YZ   -0.007377   0.002479  -0.008816  -0.005047  -0.000149
  128  H  2 XX    0.000677  -0.000080   0.003042  -0.000066   0.000066
  129  H  2 YY    0.000703   0.002525  -0.001687  -0.000060   0.000294
  130  H  2 ZZ   -0.001380  -0.002444  -0.001355   0.000126  -0.000360
  131  H  2 XY    0.000429   0.000139   0.000078   0.001898   0.002787
  132  H  2 XZ    0.000205  -0.000399   0.000115   0.002923  -0.000825
  133  H  2 YZ    0.000208  -0.000118  -0.000398   0.002949   0.000431
  134  H  2 XX    0.000023  -0.000003   0.000103  -0.000051   0.000052
  135  H  2 YY    0.000024   0.000085  -0.000057  -0.000047   0.000229
  136  H  2 ZZ   -0.000047  -0.000083  -0.000046   0.000098  -0.000281
  137  H  2 XY    0.000444  -0.000116  -0.000061  -0.000065  -0.000260
  138  H  2 XZ    0.000391  -0.000241  -0.000053  -0.000177   0.000134
  139  H  2 YZ    0.000391  -0.000175  -0.000172  -0.000180  -0.000003
  140  H  2 XXX  -0.001326   0.000559   0.000049  -0.000996  -0.000100
  141  H  2 YYY  -0.001327   0.000347   0.000432  -0.000986   0.000448
  142  H  2 ZZZ  -0.001160   0.000747   0.000408  -0.000538  -0.001131
  143  H  2 XXY   0.000529  -0.000645  -0.001057   0.000972  -0.000989
  144  H  2 XXZ   0.000782  -0.000046  -0.001098   0.000369   0.001127
  145  H  2 YYX   0.000523  -0.001245   0.000026   0.000970  -0.000991
  146  H  2 YYZ   0.000774  -0.000957   0.000551   0.000352   0.000391
  147  H  2 ZZX   0.001255   0.000495  -0.000091   0.000367   0.001125
  148  H  2 ZZY   0.001252   0.000179   0.000477   0.000351   0.000388
  149  H  2 XYZ   0.001254  -0.000541  -0.000289  -0.001537  -0.000471
  150  H  2 XXX   0.000011  -0.000020  -0.000222   0.000521   0.000113
  151  H  2 YYY   0.000010  -0.000199   0.000102   0.000519  -0.000014
  152  H  2 ZZZ   0.000153   0.000142   0.000079   0.000415   0.000350
  153  H  2 XXY  -0.000033   0.000102  -0.000126  -0.000341  -0.000008
  154  H  2 XXZ  -0.000102  -0.000061  -0.000115  -0.000279  -0.000226
  155  H  2 YYX  -0.000035  -0.000052   0.000153  -0.000342  -0.000102
  156  H  2 YYZ  -0.000103  -0.000130   0.000009  -0.000279  -0.000244
  157  H  2 ZZX   0.000020   0.000078   0.000144  -0.000357  -0.000050
  158  H  2 ZZY   0.000020   0.000164  -0.000011  -0.000355   0.000026
  159  H  2 XYZ  -0.000001   0.000000   0.000000  -0.000453  -0.000140
  160  H  3  S   -0.251554  -0.213869  -0.119230  -0.006611   0.008112
  161  H  3  S   -1.431264  -1.217325  -0.678283   0.613992  -0.752510
  162  H  3  S   -0.121861  -0.109938  -0.061898   0.107370  -0.138673
  163  H  3  S   -0.103306  -0.088942  -0.049675   0.093259  -0.115524
  164  H  3  S    0.000778   0.000573   0.000310  -0.010117   0.012338
  165  H  3  X   -0.003361   0.138512  -0.060704   0.052163  -0.134203
  166  H  3  Y   -0.004504   0.022805   0.149277   0.052920  -0.097073
  167  H  3  Z   -0.141194   0.050141   0.026929  -0.129935   0.059113
  168  H  3  X   -0.014622   0.027329  -0.023346  -0.019258   0.010774
  169  H  3  Y   -0.014947  -0.005015   0.035429  -0.019115   0.017593
  170  H  3  Z   -0.025853   0.025521   0.013919   0.005039  -0.024501
  171  H  3  X   -0.003334   0.004016  -0.004436   0.001535   0.003883
  172  H  3  Y   -0.003389  -0.001592   0.005735   0.001470   0.000797
  173  H  3  Z   -0.003639   0.005108   0.002800   0.004940   0.002357
  174  H  3  X   -0.000068   0.001654  -0.000736  -0.000955   0.001091
  175  H  3  Y   -0.000082   0.000262   0.001791  -0.000954   0.001134
  176  H  3  Z   -0.001671   0.000616   0.000330   0.000867  -0.001177
  177  H  3 XX   -0.004009   0.008487  -0.006783  -0.000965  -0.001401
  178  H  3 YY   -0.004105  -0.001168   0.010764  -0.000941  -0.000004
  179  H  3 ZZ    0.008114  -0.007319  -0.003981   0.001906   0.001404
  180  H  3 XY   -0.003135   0.009999   0.005469  -0.002643  -0.006972
  181  H  3 XZ   -0.007725  -0.004567   0.007583  -0.005161   0.003107
  182  H  3 YZ   -0.007640   0.004006  -0.007973  -0.005238  -0.000669
  183  H  3 XX   -0.001076   0.002286  -0.001828   0.000163   0.000230
  184  H  3 YY   -0.001102  -0.000319   0.002900   0.000157   0.000003
  185  H  3 ZZ    0.002178  -0.001966  -0.001072  -0.000320  -0.000233
  186  H  3 XY   -0.000471   0.000031   0.000013   0.000092   0.003317
  187  H  3 XZ    0.000113   0.000153   0.000419   0.002524  -0.002029
  188  H  3 YZ    0.000116   0.000434  -0.000094   0.002550  -0.000773
  189  H  3 XX   -0.000036   0.000077  -0.000062   0.000125   0.000179
  190  H  3 YY   -0.000037  -0.000011   0.000098   0.000122   0.000001
  191  H  3 ZZ    0.000073  -0.000066  -0.000036  -0.000247  -0.000180
  192  H  3 XY   -0.000379  -0.000230  -0.000128  -0.000102  -0.000250
  193  H  3 XZ    0.000297   0.000270   0.000228  -0.000184   0.000110
  194  H  3 YZ    0.000298   0.000336   0.000109  -0.000186  -0.000028
  195  H  3 XXX  -0.001095  -0.000681  -0.000629  -0.000934   0.000110
  196  H  3 YYY  -0.001096  -0.000893  -0.000245  -0.000924   0.000658
  197  H  3 ZZZ   0.000833   0.001027   0.000572  -0.000218  -0.001218
  198  H  3 XXY   0.000159   0.001344   0.000033   0.001399   0.000303
  199  H  3 XXZ  -0.000563  -0.001145   0.000440   0.000138   0.000448
  200  H  3 YYX   0.000154   0.000744   0.001115   0.001397   0.000301
  201  H  3 YYZ  -0.000555  -0.000234  -0.001208   0.000155   0.001186
  202  H  3 ZZX   0.001314   0.000170  -0.000271  -0.000144  -0.000449
  203  H  3 ZZY   0.001312  -0.000146   0.000296  -0.000159  -0.001186
  204  H  3 XYZ  -0.001001  -0.000859  -0.000476   0.000986  -0.001213
  205  H  3 XXX  -0.000028   0.000196  -0.000104   0.000402  -0.000255
  206  H  3 YYY  -0.000029   0.000017   0.000220   0.000399  -0.000382
  207  H  3 ZZZ  -0.000196   0.000095   0.000051  -0.000136   0.000511
  208  H  3 XXY  -0.000022   0.000044  -0.000158  -0.000249   0.000275
  209  H  3 XXZ   0.000131  -0.000098   0.000028   0.000091  -0.000352
  210  H  3 YYX  -0.000024  -0.000110   0.000121  -0.000251   0.000181
  211  H  3 YYZ   0.000132  -0.000030  -0.000096   0.000091  -0.000334
  212  H  3 ZZX   0.000061  -0.000153   0.000017  -0.000288   0.000162
  213  H  3 ZZY   0.000061  -0.000067  -0.000138  -0.000286   0.000238
  214  H  3 XYZ   0.000002   0.000000   0.000000   0.000291  -0.000358
  215  H  4  S   -0.030241   0.313777  -0.154505  -0.001886  -0.008528
  216  H  4  S   -0.171412   1.784553  -0.879259   0.174816   0.791304
  217  H  4  S   -0.010317   0.151775  -0.079729   0.027684   0.139583
  218  H  4  S   -0.011475   0.128638  -0.064356   0.026055   0.120416
  219  H  4  S    0.000084  -0.000944   0.000398  -0.002883  -0.013037
  220  H  4  X   -0.103752  -0.101259  -0.044710  -0.024303   0.134819
  221  H  4  Y   -0.133731   0.068966   0.025627  -0.083564  -0.103359
  222  H  4  Z   -0.012022   0.003833   0.150579   0.006574   0.065421
  223  H  4  X   -0.030792  -0.011324  -0.020795  -0.012644  -0.012500
  224  H  4  Y   -0.035842   0.002247   0.015430  -0.007002   0.018230
  225  H  4  Z   -0.005046   0.018070   0.033915  -0.007037  -0.025208
  226  H  4  X   -0.005404  -0.000926  -0.004107   0.003668  -0.003628
  227  H  4  Y   -0.006036  -0.000627   0.003189   0.005318   0.001008
  228  H  4  Z   -0.000989   0.004149   0.005347   0.001091   0.002145
  229  H  4  X   -0.001259  -0.001184  -0.000547  -0.000316  -0.001155
  230  H  4  Y   -0.001597   0.000795   0.000317   0.000194   0.001190
  231  H  4  Z   -0.000157   0.000081   0.001804  -0.000281  -0.001233
  232  H  4 XX   -0.009242  -0.003837  -0.005988  -0.001681   0.001249
  233  H  4 YY    0.010748  -0.001116  -0.004379   0.002256   0.000090
  234  H  4 ZZ   -0.001506   0.004953   0.010367  -0.000575  -0.001339
  235  H  4 XY   -0.001864   0.009506   0.006623  -0.002278  -0.006962
  236  H  4 XZ   -0.009006  -0.004102   0.006429  -0.005523   0.003107
  237  H  4 YZ   -0.008723   0.001687  -0.007854  -0.005393   0.000075
  238  H  4 XX   -0.002476  -0.001030  -0.001611   0.000292  -0.000207
  239  H  4 YY    0.002881  -0.000303  -0.001180  -0.000385  -0.000012
  240  H  4 ZZ   -0.000405   0.001333   0.002791   0.000094   0.000219
  241  H  4 XY   -0.000023  -0.000144   0.000436   0.000999   0.003356
  242  H  4 XZ   -0.000341   0.000317  -0.000004   0.001620  -0.002073
  243  H  4 YZ   -0.000254  -0.000398  -0.000044   0.002055   0.001001
  244  H  4 XX   -0.000082  -0.000035  -0.000054   0.000221  -0.000161
  245  H  4 YY    0.000095  -0.000010  -0.000040  -0.000295  -0.000010
  246  H  4 ZZ   -0.000014   0.000045   0.000094   0.000074   0.000171
  247  H  4 XY    0.000029  -0.000372   0.000272  -0.000083  -0.000248
  248  H  4 XZ   -0.000111   0.000414  -0.000172  -0.000203   0.000108
  249  H  4 YZ   -0.000021  -0.000432   0.000161  -0.000198   0.000009
  250  H  4 XXX  -0.000324   0.001177  -0.000759  -0.000840  -0.000203
  251  H  4 YYY  -0.000110  -0.001233   0.000725  -0.000758   0.000673
  252  H  4 ZZZ  -0.000155   0.001366  -0.000398  -0.000384  -0.001235
  253  H  4 XXY   0.000441   0.001244   0.000281   0.000196   0.000241
  254  H  4 XXZ  -0.000844  -0.001044   0.000191   0.001341   0.000513
  255  H  4 YYX   0.000796  -0.001079  -0.000183  -0.000206  -0.000241
  256  H  4 YYZ   0.001052  -0.000788   0.000343  -0.000826   0.001144
  257  H  4 ZZX  -0.000362  -0.000500   0.001202   0.001334   0.000514
  258  H  4 ZZY  -0.000294   0.000411  -0.001254   0.000821  -0.001144
  259  H  4 XYZ  -0.000128   0.001255  -0.000623   0.000286   0.001276
  260  H  4 XXX  -0.000164  -0.000128  -0.000082   0.000248   0.000288
  261  H  4 YYY  -0.000203   0.000079   0.000052   0.000122  -0.000396
  262  H  4 ZZZ  -0.000022   0.000034   0.000219   0.000142   0.000525
  263  H  4 XXY   0.000163  -0.000022   0.000022  -0.000089   0.000282
  264  H  4 XXZ  -0.000054  -0.000032  -0.000152  -0.000069  -0.000360
  265  H  4 YYX   0.000152   0.000065   0.000003  -0.000185  -0.000202
  266  H  4 YYZ   0.000084  -0.000013  -0.000141  -0.000121  -0.000345
  267  H  4 ZZX   0.000067   0.000107   0.000107  -0.000148  -0.000184
  268  H  4 ZZY   0.000109  -0.000083  -0.000093  -0.000074   0.000249
  269  H  4 XYZ   0.000001  -0.000003   0.000000   0.000083   0.000375
  270  H  5  S   -0.032958   0.037060   0.347538  -0.001760  -0.002737
  271  H  5  S   -0.186888   0.209968   1.975598   0.163460   0.253837
  272  H  5  S   -0.011580   0.012995   0.167954   0.026129   0.042223
  273  H  5  S   -0.012566   0.014164   0.142324   0.024451   0.038254
  274  H  5  S    0.000084  -0.000094  -0.001024  -0.002693  -0.004183
  275  H  5  X   -0.133875   0.059540   0.043774  -0.082386  -0.046602
  276  H  5  Y   -0.103600  -0.091834  -0.062857  -0.025456   0.078048
  277  H  5  Z   -0.010780   0.129410  -0.077675   0.004713  -0.028260
  278  H  5  X   -0.035751   0.014650  -0.006601  -0.007304   0.003444
  279  H  5  Y   -0.030878  -0.023728   0.001239  -0.012336   0.002283
  280  H  5  Z   -0.004850   0.038378  -0.002923  -0.006835  -0.017079
  281  H  5  X   -0.006005   0.002370  -0.002272   0.005325   0.001471
  282  H  5  Y   -0.005435  -0.003923   0.001354   0.003660  -0.004090
  283  H  5  Z   -0.000964   0.006738   0.000642   0.001146   0.004759
  284  H  5  X   -0.001598   0.000702   0.000488   0.000177   0.000367
  285  H  5  Y   -0.001258  -0.001091  -0.000718  -0.000299  -0.000332
  286  H  5  Z   -0.000142   0.001570  -0.000896  -0.000265  -0.000452
  287  H  5 XX    0.010721  -0.004397   0.001487   0.002254   0.000529
  288  H  5 YY   -0.009266  -0.007117  -0.000121  -0.001677   0.001685
  289  H  5 ZZ   -0.001455   0.011514  -0.001366  -0.000576  -0.002214
  290  H  5 XY   -0.001872   0.010853   0.004436  -0.002262  -0.007156
  291  H  5 XZ   -0.008803  -0.005650   0.005545  -0.005312   0.003606
  292  H  5 YZ   -0.008924   0.003236  -0.006971  -0.005598  -0.000427
  293  H  5 XX    0.002873  -0.001179   0.000397  -0.000388  -0.000091
  294  H  5 YY   -0.002483  -0.001906  -0.000033   0.000289  -0.000286
  295  H  5 ZZ   -0.000390   0.003085  -0.000365   0.000099   0.000377
  296  H  5 XY   -0.000022   0.000317  -0.000356   0.000988   0.002748
  297  H  5 XZ   -0.000253  -0.000238  -0.000318   0.002017  -0.000871
  298  H  5 YZ   -0.000341   0.000157   0.000270   0.001659  -0.000201
  299  H  5 XX    0.000095  -0.000039   0.000013  -0.000296  -0.000069
  300  H  5 YY   -0.000082  -0.000063  -0.000001   0.000220  -0.000220
  301  H  5 ZZ   -0.000013   0.000102  -0.000012   0.000076   0.000289
  302  H  5 XY    0.000034   0.000027  -0.000459  -0.000083  -0.000262
  303  H  5 XZ   -0.000018  -0.000096  -0.000451  -0.000195   0.000133
  304  H  5 YZ   -0.000114   0.000078   0.000440  -0.000206  -0.000016
[...]
              7  SI 1  Y      0.66580     0.12041
              8  SI 1  Z      0.66640     0.12041
              9  SI 1  X     -0.01333     0.00975
             10  SI 1  Y     -0.01332     0.00975
             11  SI 1  Z     -0.01331     0.00975
             12  SI 1  X      0.08302     0.05895
             13  SI 1  Y      0.08294     0.05895
             14  SI 1  Z      0.08286     0.05895
             15  SI 1  X      0.07877     0.12099
             16  SI 1  Y      0.07858     0.12099
             17  SI 1  Z      0.07835     0.12098
             18  SI 1  X     -0.00150     0.01422
             19  SI 1  Y     -0.00150     0.01422
             20  SI 1  Z     -0.00149     0.01422
             21  SI 1 XX      0.00000     0.02486
             22  SI 1 YY     -0.00000     0.02486
             23  SI 1 ZZ      0.00697     0.02486
             24  SI 1 XY      0.00697     0.00519
             25  SI 1 XZ      0.00697     0.00519
             26  SI 1 YZ      0.00000     0.00519
             27  SI 1 XX      0.00000     0.05968
             28  SI 1 YY      0.00000     0.05968
             29  SI 1 ZZ      0.02336     0.05968
             30  SI 1 XY      0.02336     0.01986
             31  SI 1 XZ      0.02336     0.01986
             32  SI 1 YZ      0.00000     0.01986
             33  SI 1 XX     -0.00000     0.02461
             34  SI 1 YY     -0.00000     0.02461
             35  SI 1 ZZ      0.02387     0.02461
             36  SI 1 XY      0.02384     0.02646
             37  SI 1 XZ      0.02382     0.02646
             38  SI 1 YZ      0.00000     0.02646
             39  SI 1 XX      0.00000     0.00148
             40  SI 1 YY     -0.00000     0.00148
             41  SI 1 ZZ      0.00574     0.00148
             42  SI 1 XY      0.00573     0.00699
             43  SI 1 XZ      0.00573     0.00699
             44  SI 1 YZ      0.00000     0.00699
             45  SI 1 XXX     0.00068     0.06389
             46  SI 1 YYY     0.00000     0.06389
             47  SI 1 ZZZ     0.00041     0.06389
             48  SI 1 XXY     0.00109     0.04792
             49  SI 1 XXZ     0.00041     0.04792
             50  SI 1 YYX     0.00354     0.04792
             51  SI 1 YYZ     0.00068     0.04792
             52  SI 1 ZZX     0.00000     0.04792
             53  SI 1 ZZY     0.00000     0.04792
             54  SI 1 XYZ     0.00000     0.00207
             55  SI 1 XXX     0.00078     0.06803
             56  SI 1 YYY    -0.00000     0.06803
             57  SI 1 ZZZ     0.00047     0.06803
             58  SI 1 XXY     0.00124     0.07486
             59  SI 1 XXZ     0.00047     0.07486
             60  SI 1 YYX     0.01942     0.07486
             61  SI 1 YYZ     0.00078     0.07486
             62  SI 1 ZZX     0.00000     0.07486
             63  SI 1 ZZY     0.00000     0.07486
             64  SI 1 XYZ     0.00000     0.01700
             65  SI 1 XXX     0.00029     0.01870
             66  SI 1 YYY    -0.00000     0.01870
             67  SI 1 ZZZ     0.00018     0.01870
             68  SI 1 XXY     0.00047     0.02052
             69  SI 1 XXZ     0.00018     0.02052
             70  SI 1 YYX     0.00084     0.02052
             71  SI 1 YYZ     0.00029     0.02052
             72  SI 1 ZZX     0.00000     0.02052
             73  SI 1 ZZY     0.00000     0.02052
             74  SI 1 XYZ     0.00000     0.00421
             75  SI 1XXXX     0.00041     0.02798
             76  SI 1YYYY     0.00056     0.02798
             77  SI 1ZZZZ    -0.00000     0.02798
             78  SI 1XXXY     0.00008     0.01558
             79  SI 1XXXZ     0.00058     0.01558
             80  SI 1YYYX     0.00008     0.01558
             81  SI 1YYYZ     0.00063     0.01558
             82  SI 1ZZZX     0.00055     0.01558
             83  SI 1ZZZY     0.00000     0.01558
             84  SI 1XXYY     0.00000     0.04169
             85  SI 1XXZZ     0.00000     0.04169
             86  SI 1YYZZ     0.00000     0.04169
             87  SI 1XXYZ     0.00000     0.01865
             88  SI 1YYXZ     0.00000     0.01865
             89  SI 1ZZXY     0.00000     0.01865
             90  SI 1XXXX     0.00070     0.00930
             91  SI 1YYYY     0.00089     0.00930
             92  SI 1ZZZZ    -0.00000     0.00930
             93  SI 1XXXY     0.00013     0.01622
             94  SI 1XXXZ     0.00097     0.01622
             95  SI 1YYYX     0.00013     0.01622
             96  SI 1YYYZ     0.00102     0.01622
             97  SI 1ZZZX     0.00089     0.01622
             98  SI 1ZZZY     0.00000     0.01622
             99  SI 1XXYY     0.00000     0.02024
            100  SI 1XXZZ     0.00000     0.02024
            101  SI 1YYZZ     0.00000     0.02024
            102  SI 1XXYZ     0.00000     0.02305
            103  SI 1YYXZ     0.00000     0.02305
            104  SI 1ZZXY     0.00000     0.02305
            105  H  2  S      1.52177     0.18067
            106  H  2  S     -0.00480     0.01823
            107  H  2  S     -0.26481     0.06350
            108  H  2  S     -0.29631     0.13232
            109  H  2  S     -0.06016     0.16144
            110  H  2  X     -0.00325     0.02558
            111  H  2  Y     -0.00340     0.02558
            112  H  2  Z     -0.00360     0.02558
            113  H  2  X      0.00149     0.00764
            114  H  2  Y      0.00146     0.00764
            115  H  2  Z      0.00142     0.00764
            116  H  2  X      0.00142     0.00140
            117  H  2  Y      0.00142     0.00140
            118  H  2  Z      0.00142     0.00140
            119  H  2  X      0.00013     0.00015
            120  H  2  Y      0.00013     0.00015
            121  H  2  Z      0.00013     0.00015
            122  H  2 XX     -0.00064     0.02898
            123  H  2 YY     -0.00064     0.02898
            124  H  2 ZZ     -0.00032     0.02898
            125  H  2 XY     -0.00033     0.00996
            126  H  2 XZ     -0.00035     0.00996
            127  H  2 YZ      0.00000     0.00996
            128  H  2 XX      0.00013     0.04146
            129  H  2 YY      0.00013     0.04146
            130  H  2 ZZ      0.00023     0.04146
            131  H  2 XY      0.00023     0.00122
            132  H  2 XZ      0.00023     0.00122
            133  H  2 YZ      0.00000     0.00122
            134  H  2 XX      0.00000     0.03920
            135  H  2 YY      0.00000     0.03920
            136  H  2 ZZ      0.00001     0.03920
            137  H  2 XY      0.00001     0.00004
            138  H  2 XZ      0.00001     0.00004
            139  H  2 YZ      0.00000     0.00004
            140  H  2 XXX     0.00004     0.00679
            141  H  2 YYY     0.00012     0.00679
            142  H  2 ZZZ     0.00007     0.00678
            143  H  2 XXY    -0.00000     0.00386
            144  H  2 XXZ     0.00007     0.00386
            145  H  2 YYX    -0.00000     0.00386
            146  H  2 YYZ     0.00004     0.00386
            147  H  2 ZZX     0.00000     0.00386
            148  H  2 ZZY     0.00000     0.00386
            149  H  2 XYZ     0.00000     0.00000
            150  H  2 XXX     0.00000     0.00093
            151  H  2 YYY     0.00000     0.00093
            152  H  2 ZZZ     0.00000     0.00093
            153  H  2 XXY     0.00000     0.00064
            154  H  2 XXZ     0.00000     0.00064
            155  H  2 YYX     0.00000     0.00064
            156  H  2 YYZ     0.00000     0.00064
            157  H  2 ZZX     0.00000     0.00064
            158  H  2 ZZY     0.00000     0.00064
            159  H  2 XYZ     0.00000     0.00008
            160  H  3  S      1.52178     0.18066
            161  H  3  S     -0.00468     0.01823
            162  H  3  S     -0.26690     0.06349
            163  H  3  S     -0.29746     0.13232
            164  H  3  S     -0.06015     0.16144
            165  H  3  X     -0.00305     0.02558
            166  H  3  Y     -0.00289     0.02558
            167  H  3  Z     -0.00376     0.02557
            168  H  3  X      0.00150     0.00764
            169  H  3  Y      0.00153     0.00764
            170  H  3  Z      0.00135     0.00764
            171  H  3  X      0.00142     0.00140
            172  H  3  Y      0.00142     0.00140
            173  H  3  Z      0.00142     0.00140
            174  H  3  X      0.00013     0.00015
            175  H  3  Y      0.00013     0.00015
            176  H  3  Z      0.00013     0.00015
            177  H  3 XX     -0.00065     0.02898
            178  H  3 YY     -0.00064     0.02898
            179  H  3 ZZ     -0.00030     0.02898
            180  H  3 XY     -0.00035     0.00996
            181  H  3 XZ     -0.00033     0.00996
            182  H  3 YZ      0.00000     0.00996
            183  H  3 XX      0.00013     0.04146
            184  H  3 YY      0.00013     0.04146
            185  H  3 ZZ      0.00023     0.04146
            186  H  3 XY      0.00023     0.00122
            187  H  3 XZ      0.00023     0.00122
            188  H  3 YZ      0.00000     0.00122
            189  H  3 XX      0.00000     0.03920
            190  H  3 YY      0.00000     0.03920
            191  H  3 ZZ      0.00001     0.03920
            192  H  3 XY      0.00001     0.00004
            193  H  3 XZ      0.00001     0.00004
            194  H  3 YZ      0.00000     0.00004
            195  H  3 XXX     0.00004     0.00679
            196  H  3 YYY     0.00012     0.00679
            197  H  3 ZZZ     0.00007     0.00678
            198  H  3 XXY    -0.00000     0.00386
            199  H  3 XXZ     0.00007     0.00386
            200  H  3 YYX    -0.00000     0.00386
            201  H  3 YYZ     0.00004     0.00386
            202  H  3 ZZX     0.00000     0.00386
            203  H  3 ZZY     0.00000     0.00386
            204  H  3 XYZ     0.00000     0.00000
            205  H  3 XXX     0.00000     0.00093
            206  H  3 YYY     0.00000     0.00093
            207  H  3 ZZZ     0.00000     0.00093
            208  H  3 XXY     0.00000     0.00064
            209  H  3 XXZ     0.00000     0.00064
            210  H  3 YYX     0.00000     0.00064
            211  H  3 YYZ     0.00000     0.00064
            212  H  3 ZZX     0.00000     0.00064
            213  H  3 ZZY     0.00000     0.00064
            214  H  3 XYZ     0.00000     0.00008
            215  H  4  S      1.52179     0.18066
            216  H  4  S     -0.00456     0.01823
            217  H  4  S     -0.26854     0.06349
            218  H  4  S     -0.29839     0.13231
            219  H  4  S     -0.06014     0.16144
            220  H  4  X     -0.00317     0.02558
            221  H  4  Y     -0.00346     0.02558
            222  H  4  Z     -0.00259     0.02558
            223  H  4  X      0.00144     0.00764
            224  H  4  Y      0.00139     0.00764
            225  H  4  Z      0.00156     0.00764
            226  H  4  X      0.00142     0.00140
            227  H  4  Y      0.00142     0.00140
            228  H  4  Z      0.00142     0.00140
            229  H  4  X      0.00013     0.00015
            230  H  4  Y      0.00013     0.00015
            231  H  4  Z      0.00013     0.00015
            232  H  4 XX     -0.00064     0.02898
            233  H  4 YY     -0.00065     0.02898
            234  H  4 ZZ     -0.00034     0.02898
            235  H  4 XY     -0.00030     0.00996
            236  H  4 XZ     -0.00032     0.00996
            237  H  4 YZ      0.00000     0.00996
            238  H  4 XX      0.00013     0.04146
            239  H  4 YY      0.00013     0.04146
            240  H  4 ZZ      0.00023     0.04146
            241  H  4 XY      0.00023     0.00122
            242  H  4 XZ      0.00023     0.00122
            243  H  4 YZ      0.00000     0.00122
            244  H  4 XX      0.00000     0.03920
            245  H  4 YY      0.00000     0.03920
            246  H  4 ZZ      0.00001     0.03920
            247  H  4 XY      0.00001     0.00004
            248  H  4 XZ      0.00001     0.00004
            249  H  4 YZ      0.00000     0.00004
            250  H  4 XXX     0.00004     0.00678
            251  H  4 YYY     0.00012     0.00678
            252  H  4 ZZZ     0.00007     0.00679
            253  H  4 XXY    -0.00000     0.00386
            254  H  4 XXZ     0.00007     0.00386
            255  H  4 YYX    -0.00000     0.00386
            256  H  4 YYZ     0.00004     0.00386
            257  H  4 ZZX     0.00000     0.00386
            258  H  4 ZZY     0.00000     0.00386
            259  H  4 XYZ     0.00000     0.00000
            260  H  4 XXX     0.00000     0.00093
            261  H  4 YYY     0.00000     0.00093
            262  H  4 ZZZ     0.00000     0.00093
            263  H  4 XXY     0.00000     0.00064
            264  H  4 XXZ     0.00000     0.00064
            265  H  4 YYX     0.00000     0.00064
            266  H  4 YYZ     0.00000     0.00064
            267  H  4 ZZX     0.00000     0.00064
            268  H  4 ZZY     0.00000     0.00064
            269  H  4 XYZ     0.00000     0.00008
            270  H  5  S      1.52180     0.18066
            271  H  5  S     -0.00445     0.01823
            272  H  5  S     -0.26973     0.06348
            273  H  5  S     -0.29909     0.13231
            274  H  5  S     -0.06014     0.16144
            275  H  5  X     -0.00322     0.02558
            276  H  5  Y     -0.00292     0.02558
            277  H  5  Z     -0.00267     0.02558
            278  H  5  X      0.00142     0.00764
            279  H  5  Y      0.00147     0.00764
            280  H  5  Z      0.00152     0.00764
            281  H  5  X      0.00142     0.00140
            282  H  5  Y      0.00142     0.00140
            283  H  5  Z      0.00142     0.00140
            284  H  5  X      0.00013     0.00015
            285  H  5  Y      0.00013     0.00015
            286  H  5  Z      0.00013     0.00015
            287  H  5 XX     -0.00065     0.02899
            288  H  5 YY     -0.00065     0.02898
            289  H  5 ZZ     -0.00033     0.02898
            290  H  5 XY     -0.00032     0.00996
            291  H  5 XZ     -0.00030     0.00996
            292  H  5 YZ      0.00000     0.00996
            293  H  5 XX      0.00013     0.04146
            294  H  5 YY      0.00013     0.04146
            295  H  5 ZZ      0.00023     0.04146
            296  H  5 XY      0.00023     0.00122
            297  H  5 XZ      0.00023     0.00122
            298  H  5 YZ      0.00000     0.00122
            299  H  5 XX      0.00000     0.03920
            300  H  5 YY      0.00000     0.03920
            301  H  5 ZZ      0.00001     0.03920
            302  H  5 XY      0.00001     0.00004
            303  H  5 XZ      0.00001     0.00004
            304  H  5 YZ      0.00000     0.00004
            305  H  5 XXX     0.00004     0.00678
            306  H  5 YYY     0.00012     0.00678
            307  H  5 ZZZ     0.00007     0.00679
            308  H  5 XXY    -0.00000     0.00386
            309  H  5 XXZ     0.00007     0.00386
            310  H  5 YYX    -0.00000     0.00386
            311  H  5 YYZ     0.00004     0.00386
            312  H  5 ZZX     0.00000     0.00386
            313  H  5 ZZY     0.00000     0.00386
            314  H  5 XYZ     0.00000     0.00000
            315  H  5 XXX     0.00000     0.00093
            316  H  5 YYY     0.00000     0.00093
            317  H  5 ZZZ     0.00000     0.00093
            318  H  5 XXY     0.00000     0.00064
            319  H  5 XXZ     0.00000     0.00064
            320  H  5 YYX     0.00000     0.00064
            321  H  5 YYZ     0.00000     0.00064
            322  H  5 ZZX     0.00000     0.00064
            323  H  5 ZZY     0.00000     0.00064
            324  H  5 XYZ     0.00000     0.00008

          ----- MULLIKEN ATOMIC OVERLAP POPULATIONS -----
          (OFF-DIAGONAL ELEMENTS NEED TO BE MULTIPLIED BY 2)

             1           2           3           4           5

    1    3.0596871
    2    0.3361513   0.5930605
    3    0.3425119  -0.0111854   0.5863783
    4    0.3479017  -0.0119575  -0.0130001   0.5807980
    5    0.3523111  -0.0125053  -0.0136868  -0.0146509   0.5762958

          TOTAL MULLIKEN AND LOWDIN ATOMIC POPULATIONS
       ATOM         MULL.POP.    CHARGE          LOW.POP.     CHARGE
    1 SI            4.438563   -0.438563         3.706933    0.293067
    2 H             0.893564    0.106436         1.073272   -0.073272
    3 H             0.891018    0.108982         1.073268   -0.073268
    4 H             0.889091    0.110909         1.073265   -0.073265
    5 H             0.887764    0.112236         1.073262   -0.073262

          MULLIKEN SPHERICAL HARMONIC POPULATIONS
       ATOM           S       P       D      F      G      H      I    TOTAL
    1 SI            1.78    2.44    0.18   0.03   0.01   0.00   0.00    4.44
    2 H             0.90   -0.00   -0.00   0.00   0.00   0.00   0.00    0.89
    3 H             0.89   -0.00   -0.00   0.00   0.00   0.00   0.00    0.89
    4 H             0.89   -0.00   -0.00   0.00   0.00   0.00   0.00    0.89
    5 H             0.89    0.00   -0.00   0.00   0.00   0.00   0.00    0.89

          -------------------------------
          BOND ORDER AND VALENCE ANALYSIS     BOND ORDER THRESHOLD=0.050
          -------------------------------

                   BOND                       BOND                       BOND
  ATOM PAIR DIST  ORDER      ATOM PAIR DIST  ORDER      ATOM PAIR DIST  ORDER
    1   2  1.480  0.822        1   3  1.480  0.824        1   4  1.480  0.827
    1   5  1.480  0.829

                       TOTAL       BONDED        FREE
      ATOM            VALENCE     VALENCE     VALENCE
    1 SI                3.302       3.302      -0.000
    2 H                 0.913       0.913       0.000
    3 H                 0.916       0.916      -0.000
    4 H                 0.918       0.918      -0.000
    5 H                 0.920       0.920       0.000

          -----------------------------------------
          ATOMIC SPIN DENSITY AT THE NUCLEUS (A.U.)
          -----------------------------------------
                            SPIN DENS    ALPHA DENS     BETA DENS
    1  SI           4.0     0.0000000       0.00009       0.00009
    2  H            1.0     0.0000000       0.18592       0.18592
    3  H            1.0     0.0000000       0.18592       0.18592
    4  H            1.0     0.0000000       0.18592       0.18592
    5  H            1.0     0.0000000       0.18592       0.18592

          ---------------------
          ELECTROSTATIC MOMENTS
          ---------------------

 POINT   1           X           Y           Z (BOHR)    CHARGE
                 0.000000    0.000000    0.000000       -0.00 (A.U.)
         DX          DY          DZ         /D/  (DEBYE)
    -0.000001   -0.000006   -0.000012    0.000013
 ...... END OF PROPERTY EVALUATION ......
 STEP CPU TIME =     2.86 TOTAL CPU TIME =      426.3 (    7.1 MIN)
 TOTAL WALL CLOCK TIME=      884.6 SECONDS, CPU UTILIZATION IS  48.19%
               1294862  WORDS OF DYNAMIC MEMORY USED
 EXECUTION OF GAMESS TERMINATED NORMALLY Wed Jul  8 15:58:07 2020
 DDI: 263624 bytes (0.3 MB / 0 MWords) used by master data server.

 ----------------------------------------
 CPU timing information for all processes
 ========================================
 0: 357.384 + 68.934 = 426.318
 ----------------------------------------
 ddikick.x: exited gracefully.
----- accounting info -----
Files used on the master node nid00104 were:
-rw-rw---- 1 aannabe aannabe        5343 Jul  8 15:43 /global/cscratch1/sd/aannabe/scf.F05
-rw-rw---- 1 aannabe aannabe 20351196656 Jul  8 15:51 /global/cscratch1/sd/aannabe/scf.F08
-rw-rw---- 1 aannabe aannabe    16294560 Jul  8 15:58 /global/cscratch1/sd/aannabe/scf.F10
Wed Jul  8 15:58:13 PDT 2020
0.375u 3.049s 14:51.95 0.3%	0+0k 8482+40io 2pf+0w
