----- GAMESS execution script 'rungms' -----
This job is running on host gwang18-p3
under operating system Linux at 2020年 05月 28日 星期四 22:09:44 EDT
Available scratch disk space (Kbyte units) at beginning of the job is
Filesystem     1K-blocks      Used Available Use% Mounted on
/dev/sda6      216112148 177729128  27382036  87% /
GAMESS temporary binary files will be written to /home/gwang18/research/projects/si_gap/sih4/cis/smaller-bas/30orb
GAMESS supplementary output files will be written to /home/gwang18/research/projects/si_gap/sih4/cis/smaller-bas/30orb
Copying input file ci.inp to your run's scratch directory...

 Distributed Data Interface kickoff program.
 Initiating 1 compute processes on 1 nodes to run the following command:
 /home/gwang18/software/gamess/gamess.00.x ci 

          ******************************************************
          *         GAMESS VERSION =  5 DEC 2014 (R1)          *
          *             FROM IOWA STATE UNIVERSITY             *
          * M.W.SCHMIDT, K.K.BALDRIDGE, J.A.BOATZ, S.T.ELBERT, *
          *   M.S.GORDON, J.H.JENSEN, S.KOSEKI, N.MATSUNAGA,   *
          *          K.A.NGUYEN, S.J.SU, T.L.WINDUS,           *
          *       TOGETHER WITH M.DUPUIS, J.A.MONTGOMERY       *
          *         J.COMPUT.CHEM.  14, 1347-1363(1993)        *
          **************** 64 BIT LINUX VERSION ****************

  SINCE 1993, STUDENTS AND POSTDOCS WORKING AT IOWA STATE UNIVERSITY
  AND ALSO IN THEIR VARIOUS JOBS AFTER LEAVING ISU HAVE MADE IMPORTANT
  CONTRIBUTIONS TO THE CODE:
     IVANA ADAMOVIC, CHRISTINE AIKENS, YURI ALEXEEV, POOJA ARORA,
     ANDREY ASADCHEV, ROB BELL, PRADIPTA BANDYOPADHYAY, JONATHAN BENTZ,
     BRETT BODE, KURT BRORSEN, CALEB CARLIN, GALINA CHABAN, WEI CHEN,
     CHEOL HO CHOI, PAUL DAY, ALBERT DEFUSCO, NUWAN DESILVA, TIM DUDLEY,
     DMITRI FEDOROV, GRAHAM FLETCHER, MARK FREITAG, KURT GLAESEMANN,
     DAN KEMP, GRANT MERRILL, NORIYUKI MINEZAWA, JONATHAN MULLIN,
     TAKESHI NAGATA, SEAN NEDD, HEATHER NETZLOFF, BOSILJKA NJEGIC, RYAN OLSON,
     MIKE PAK, SPENCER PRUITT, LUKE ROSKOP, JIM SHOEMAKER, LYUDMILA SLIPCHENKO,
     TONY SMITH, SAROM SOK, JIE SONG, TETSUYA TAKETSUGU, SIMON WEBB,
     PENG XU, SOOHAENG YOO, FEDERICO ZAHARIEV

  ADDITIONAL CODE HAS BEEN PROVIDED BY COLLABORATORS IN OTHER GROUPS:
     IOWA STATE UNIVERSITY:
          JOE IVANIC, AARON WEST, LAIMUTIS BYTAUTAS, KLAUS RUEDENBERG
     UNIVERSITY OF TOKYO: KIMIHIKO HIRAO, TAKAHITO NAKAJIMA,
          TAKAO TSUNEDA, MUNEAKI KAMIYA, SUSUMU YANAGISAWA,
          KIYOSHI YAGI, MAHITO CHIBA, SEIKEN TOKURA, NAOAKI KAWAKAMI
     UNIVERSITY OF AARHUS: FRANK JENSEN
     UNIVERSITY OF IOWA: VISVALDAS KAIRYS, HUI LI
     NATIONAL INST. OF STANDARDS AND TECHNOLOGY: WALT STEVENS, DAVID GARMER
     UNIVERSITY OF PISA: BENEDETTA MENNUCCI, JACOPO TOMASI
     UNIVERSITY OF MEMPHIS: HENRY KURTZ, PRAKASHAN KORAMBATH
     UNIVERSITY OF ALBERTA: TOBY ZENG, MARIUSZ KLOBUKOWSKI
     UNIVERSITY OF NEW ENGLAND: MARK SPACKMAN
     MIE UNIVERSITY: HIROAKI UMEDA
     NAT. INST. OF ADVANCED INDUSTRIAL SCIENCE AND TECHNOLOGY: KAZUO KITAURA
     MICHIGAN STATE UNIVERSITY:
          KAROL KOWALSKI, MARTA WLOCH, JEFFREY GOUR, JESSE LUTZ,
          WEI LI, PIOTR PIECUCH
     UNIVERSITY OF SILESIA: MONIKA MUSIAL, STANISLAW KUCHARSKI
     FACULTES UNIVERSITAIRES NOTRE-DAME DE LA PAIX:
          OLIVIER QUINET, BENOIT CHAMPAGNE
     UNIVERSITY OF CALIFORNIA - SANTA BARBARA: BERNARD KIRTMAN
     INSTITUTE FOR MOLECULAR SCIENCE:
          KAZUYA ISHIMURA, MICHIO KATOUDA, AND SHIGERU NAGASE
     UNIVERSITY OF NOTRE DAME: ANNA POMOGAEVA, DAN CHIPMAN
     KYUSHU UNIVERSITY:
          HARUYUKI NAKANO,
          FENG LONG GU, JACEK KORCHOWIEC, MARCIN MAKOWSKI, AND YURIKO AOKI,
          HIROTOSHI MORI AND EISAKU MIYOSHI
     PENNSYLVANIA STATE UNIVERSITY:
          TZVETELIN IORDANOV, CHET SWALINA, JONATHAN SKONE,
          SHARON HAMMES-SCHIFFER
     WASEDA UNIVERSITY:
          MASATO KOBAYASHI, TOMOKO AKAMA, TSUGUKI TOUMA,
          TAKESHI YOSHIKAWA, YASUHIRO IKABATA, HIROMI NAKAI
     NANJING UNIVERSITY: SHUHUA LI
     UNIVERSITY OF NEBRASKA:
          PEIFENG SU, DEJUN SI, NANDUN THELLAMUREGE, YALI WANG, HUI LI
     UNIVERSITY OF ZURICH: ROBERTO PEVERATI, KIM BALDRIDGE
     N. COPERNICUS UNIVERSITY AND JACKSON STATE UNIVERSITY:
          MARIA BARYSZ
     UNIVERSITY OF COPENHAGEN: CASPER STEINMANN
     TOKYO INSTITUTE OF TECHNOLOGY: HIROYA NAKATA
     NAGOYA UNIVERSITY: YOSHIO NISHIMOTO, STEPHAN IRLE

 EXECUTION OF GAMESS BEGUN Thu May 28 22:09:45 2020

            ECHO OF THE FIRST FEW INPUT CARDS -
 INPUT CARD> $CONTRL                                                                        
 INPUT CARD>     CITYP=GUGA                                                                 
 INPUT CARD>     SCFTYP=NONE                                                                
 INPUT CARD>     MULT=1                                                                     
 INPUT CARD>     ICHARG=0                                                                   
 INPUT CARD>     RUNTYP=energy                                                              
 INPUT CARD>     MAXIT=100                                                                  
 INPUT CARD>     PP=READ                                                                    
 INPUT CARD>     UNITS=ANGS                                                                 
 INPUT CARD>     QMTTOL=1.0E-06                                                             
 INPUT CARD> $END                                                                           
 INPUT CARD>                                                                                
 INPUT CARD> $SYSTEM                                                                        
 INPUT CARD>    MWORDS=1000                                                                 
 INPUT CARD>    MEMDDI=1000                                                                 
 INPUT CARD> $END                                                                           
 INPUT CARD>                                                                                
 INPUT CARD> $GUESS                                                                         
 INPUT CARD>     GUESS=MOREAD                                                               
 INPUT CARD>     NORB=50                                                                    
 INPUT CARD>     PUNMO=.T.                                                                  
 INPUT CARD>     PRTMO=.T.                                                                  
 INPUT CARD>!     GUESS=HUCKEL                                                              
 INPUT CARD> $END                                                                           
 INPUT CARD>                                                                                
 INPUT CARD>! $SCF DAMP=.T. SOSCF=.F. SHIFT=.T. RSTRCT=.T. DIIS=.T.  $end                   
 INPUT CARD>                                                                                
 INPUT CARD>                                                                                
 INPUT CARD>! $MCSCF                                                                        
 INPUT CARD>!      CISTEP=GUGA                                                              
 INPUT CARD>! $END                                                                          
 INPUT CARD>                                                                                
 INPUT CARD> $CIDRT                                                                         
 INPUT CARD>      NPRT=2                                                                    
 INPUT CARD>      NFZC=0                                                                    
 INPUT CARD>      NDOC=4                                                                    
 INPUT CARD> !     NAOS=1                                                                   
 INPUT CARD> !     NBOS=1                                                                   
 INPUT CARD>      NVAL=30                                                                   
 INPUT CARD>      IEXCIT=1                                                                  
 INPUT CARD>      GROUP=C1                                                                  
 INPUT CARD> $END                                                                           
 INPUT CARD>                                                                                
 INPUT CARD> $GUGDIA NSTATE=2 $END                                                          
 INPUT CARD>                                                                                
 INPUT CARD> $GUGDM NFLGDM(1)=0,1 IROOT=2 $END                                              
 INPUT CARD>                                                                                
 INPUT CARD>! $CIS                                                                          
 INPUT CARD>!      HAMTYP=SAPS MULT=1 NACORE=0 NSTATE=1 IROOT=1                             
 INPUT CARD>! $END                                                                          
 1000000000 WORDS OF MEMORY AVAILABLE


     RUN TITLE
     ---------
 Silane CIS calculation                                                          

 THE POINT GROUP OF THE MOLECULE IS C1      
 THE ORDER OF THE PRINCIPAL AXIS IS     0
 *** WARNING! ATOM   1 SHELL    4 TYPE P HAS NORMALIZATION   0.99999860

 ATOM      ATOMIC                      COORDINATES (BOHR)
           CHARGE         X                   Y                   Z
 SI         14.0     0.0000000000        0.0000000000        0.0000000000
 H           1.0     1.6145818839        1.6145818839        1.6145818839
 H           1.0    -1.6145818839       -1.6145818839        1.6145818839
 H           1.0    -1.6145818839        1.6145818839       -1.6145818839
 H           1.0     1.6145818839       -1.6145818839       -1.6145818839

          INTERNUCLEAR DISTANCES (ANGS.)
          ------------------------------

                1 SI         2 H          3 H          4 H          5 H     

   1 SI      0.0000000    1.4798642 *  1.4798642 *  1.4798642 *  1.4798642 *
   2 H       1.4798642 *  0.0000000    2.4166081 *  2.4166081 *  2.4166081 *
   3 H       1.4798642 *  2.4166081 *  0.0000000    2.4166081 *  2.4166081 *
   4 H       1.4798642 *  2.4166081 *  2.4166081 *  0.0000000    2.4166081 *
   5 H       1.4798642 *  2.4166081 *  2.4166081 *  2.4166081 *  0.0000000  

  * ... LESS THAN  3.000


     ATOMIC BASIS SET
     ----------------
 THE CONTRACTED PRIMITIVE FUNCTIONS HAVE BEEN UNNORMALIZED
 THE CONTRACTED BASIS FUNCTIONS ARE NOW NORMALIZED TO UNITY

  SHELL TYPE  PRIMITIVE        EXPONENT          CONTRACTION COEFFICIENT(S)

 SI        

      1   S       1             9.9982740    0.002893997896
      1   S       2             5.5176440   -0.014522989441
      1   S       3             3.0449650    0.077633943557
      1   S       4             1.6803930   -0.224021837126
      1   S       5             0.9273410   -0.149079891612
      1   S       6             0.5117620    0.085943937515
      1   S       7             0.2824210    0.355393741613
      1   S       8             0.1558570    0.445218676307
      1   S       9             0.0860110    0.267229805712
      1   S      10             0.0474660    0.060786955805

      2   S      11             0.5287010    1.000000000000

      3   S      12             0.0908480    1.000000000000

      4   P      13             5.0278680   -0.003241995466
      4   P      14             2.8677510    0.010648985106
      4   P      15             1.6356830   -0.049760930401
      4   P      16             0.9329470   -0.000016999976
      4   P      17             0.5321260    0.106059851657
      4   P      18             0.3035090    0.236201669632
      4   P      19             0.1731130    0.310664565483
      4   P      20             0.0987390    0.294695587818
      4   P      21             0.0563180    0.153897784748
      4   P      22             0.0321220    0.042336940785

      5   P      23             0.4116820    1.000000000000

      6   P      24             0.0700480    1.000000000000

      7   D      25             0.5242200    1.000000000000

      8   D      26             0.1682450    1.000000000000

      9   F      27             0.3503290    1.000000000000

 H         

     10   S      28            23.8431850    0.004114899701
     10   S      29            10.2124430    0.010464399240
     10   S      30             4.3741640    0.028011097966
     10   S      31             1.8735290    0.075886194491
     10   S      32             0.8024650    0.182106186780
     10   S      33             0.3437090    0.348521374698
     10   S      34             0.1472170    0.378231272542
     10   S      35             0.0630550    0.116424091548

     11   S      36             0.0917910    1.000000000000

     12   S      37             0.2876370    1.000000000000

     13   P      38             0.3939540    1.000000000000

     14   P      39             1.4626940    1.000000000000

     15   D      40             1.0658410    1.000000000000

 H         

     16   S      41            23.8431850    0.004114899701
     16   S      42            10.2124430    0.010464399240
     16   S      43             4.3741640    0.028011097966
     16   S      44             1.8735290    0.075886194491
     16   S      45             0.8024650    0.182106186780
     16   S      46             0.3437090    0.348521374698
     16   S      47             0.1472170    0.378231272542
     16   S      48             0.0630550    0.116424091548

     17   S      49             0.0917910    1.000000000000

     18   S      50             0.2876370    1.000000000000

     19   P      51             0.3939540    1.000000000000

     20   P      52             1.4626940    1.000000000000

     21   D      53             1.0658410    1.000000000000

 H         

     22   S      54            23.8431850    0.004114899701
     22   S      55            10.2124430    0.010464399240
     22   S      56             4.3741640    0.028011097966
     22   S      57             1.8735290    0.075886194491
     22   S      58             0.8024650    0.182106186780
     22   S      59             0.3437090    0.348521374698
     22   S      60             0.1472170    0.378231272542
     22   S      61             0.0630550    0.116424091548

     23   S      62             0.0917910    1.000000000000

     24   S      63             0.2876370    1.000000000000

     25   P      64             0.3939540    1.000000000000

     26   P      65             1.4626940    1.000000000000

     27   D      66             1.0658410    1.000000000000

 H         

     28   S      67            23.8431850    0.004114899701
     28   S      68            10.2124430    0.010464399240
     28   S      69             4.3741640    0.028011097966
     28   S      70             1.8735290    0.075886194491
     28   S      71             0.8024650    0.182106186780
     28   S      72             0.3437090    0.348521374698
     28   S      73             0.1472170    0.378231272542
     28   S      74             0.0630550    0.116424091548

     29   S      75             0.0917910    1.000000000000

     30   S      76             0.2876370    1.000000000000

     31   P      77             0.3939540    1.000000000000

     32   P      78             1.4626940    1.000000000000

     33   D      79             1.0658410    1.000000000000

 TOTAL NUMBER OF BASIS SET SHELLS             =   33
 NUMBER OF CARTESIAN GAUSSIAN BASIS FUNCTIONS =   94
 NUMBER OF ELECTRONS                          =   18
 CHARGE OF MOLECULE                           =    0
 SPIN MULTIPLICITY                            =    1
 NUMBER OF OCCUPIED ORBITALS (ALPHA)          =    9
 NUMBER OF OCCUPIED ORBITALS (BETA )          =    9
 TOTAL NUMBER OF ATOMS                        =    5
 THE NUCLEAR REPULSION ENERGY IS       21.3386114148
 NOTE THIS RUN IS USING CORE POTENTIALS, AND THE NUMBER OF ELECTRONS,
 OCCUPIED ORBITALS, AND NUCLEAR REPULSION ENERGY WILL BE ADJUSTED BELOW
 AFTER REMOVAL OF THE CORE CHARGES.

     $CONTRL OPTIONS
     ---------------
 SCFTYP=NONE         RUNTYP=ENERGY       EXETYP=RUN     
 MPLEVL=       0     CITYP =GUGA         CCTYP =NONE         VBTYP =NONE    
 DFTTYP=NONE         TDDFT =NONE    
 MULT  =       1     ICHARG=       0     NZVAR =       0     COORD =UNIQUE  
 PP    =READ         RELWFN=NONE         LOCAL =NONE         NUMGRD=       F
 ISPHER=      -1     NOSYM =       0     MAXIT =     100     UNITS =ANGS    
 PLTORB=       F     MOLPLT=       F     AIMPAC=       F     FRIEND=        
 NPRINT=       7     IREST =       0     GEOM  =INPUT   
 NORMF =       0     NORMP =       0     ITOL  =      20     ICUT  =       9
 INTTYP=BEST         GRDTYP=BEST         QMTTOL= 1.0E-06

     $SYSTEM OPTIONS
     ---------------
  REPLICATED MEMORY=  1000000000 WORDS (ON EVERY NODE).
 DISTRIBUTED MEMDDI=        1000 MILLION WORDS IN AGGREGATE,
 MEMDDI DISTRIBUTED OVER   1 PROCESSORS IS  1000000000 WORDS/PROCESSOR.
 TOTAL MEMORY REQUESTED ON EACH PROCESSOR=  2000000000 WORDS.
 TIMLIM=      525600.00 MINUTES, OR     365.0 DAYS.
 PARALL= F  BALTYP=  DLB     KDIAG=    0  COREFL= F
 MXSEQ2=     300 MXSEQ3=     150  mem10=         0

          --------------
          ECP POTENTIALS
          --------------

 PARAMETERS FOR "SI-CCECP" ON ATOM    1 WITH ZCORE  10 AND LMAX  2 ARE
 FOR L= 2      COEFF    N           ZETA
    1        4.00000    1        5.16832
    2       20.67326    3        8.86169
    3      -14.81817    2        3.93347
 FOR L= 0      COEFF    N           ZETA
    1       14.83276    2        9.44702
    2       26.34966    2        2.55381
 FOR L= 1      COEFF    N           ZETA
    1        7.62140    2        3.66000
    2       10.33158    2        1.90365

 PARAMETERS FOR "H-CCECP " ON ATOM    2 WITH ZCORE   0 AND LMAX  1 ARE
 FOR L= 1      COEFF    N           ZETA
    1        1.00000    1       21.24360
    2       21.24360    3       21.24360
    3      -10.85192    2       21.77697
 FOR L= 0      COEFF    N           ZETA
    1        0.00000    2        1.00000

 PARAMETERS FOR "H-CCECP " ON ATOM    3 ARE THE SAME AS ATOM   2

 PARAMETERS FOR "H-CCECP " ON ATOM    4 ARE THE SAME AS ATOM   2

 PARAMETERS FOR "H-CCECP " ON ATOM    5 ARE THE SAME AS ATOM   2

 THE ECP RUN REMOVES   10 CORE ELECTRONS, AND THE SAME NUMBER OF PROTONS.
 NUMBER OF ELECTRONS KEPT IN THE CALCULATION IS =    8
 NUMBER OF OCCUPIED ORBITALS (ALPHA) KEPT IS    =    4
 NUMBER OF OCCUPIED ORBITALS (BETA ) KEPT IS    =    4
 THE ADJUSTED NUCLEAR REPULSION ENERGY=        7.0352112604
          ECP ANGULAR INTS.........     0.01 SECONDS

          ----------------
          PROPERTIES INPUT
          ----------------

     MOMENTS            FIELD           POTENTIAL          DENSITY
 IEMOM =       1   IEFLD =       0   IEPOT =       0   IEDEN =       0
 WHERE =COMASS     WHERE =NUCLEI     WHERE =NUCLEI     WHERE =NUCLEI  
 OUTPUT=BOTH       OUTPUT=BOTH       OUTPUT=BOTH       OUTPUT=BOTH    
 IEMINT=       0   IEFINT=       0                     IEDINT=       0
                                                       MORB  =       0
          EXTRAPOLATION IN EFFECT
          SOSCF IN EFFECT
 ORBITAL PRINTING OPTION: NPREO=     1    94     2     1

     -------------------------------
     INTEGRAL TRANSFORMATION OPTIONS
     -------------------------------
     NWORD  =            0
     CUTOFF = 1.0E-09     MPTRAN =       0
     DIRTRF =       F     AOINTS =DUP     

          ----------------------
          INTEGRAL INPUT OPTIONS
          ----------------------
 NOPK  =       1 NORDER=       0 SCHWRZ=       F

     ------------------------------------------
     THE POINT GROUP IS C1 , NAXIS= 0, ORDER= 1
     ------------------------------------------

     DIMENSIONS OF THE SYMMETRY SUBSPACES ARE
 A   =   94

 ..... DONE SETTING UP THE RUN .....
 STEP CPU TIME =     0.10 TOTAL CPU TIME =        0.1 (    0.0 MIN)
 TOTAL WALL CLOCK TIME=        0.3 SECONDS, CPU UTILIZATION IS  37.04%

          ********************
          1 ELECTRON INTEGRALS
          ********************
 TIME TO DO ORDINARY INTEGRALS=      0.01
 TIME TO DO      ECP INTEGRALS=      0.02
 ...... END OF ONE-ELECTRON INTEGRALS ......
 STEP CPU TIME =     0.03 TOTAL CPU TIME =        0.1 (    0.0 MIN)
 TOTAL WALL CLOCK TIME=        0.3 SECONDS, CPU UTILIZATION IS  43.33%

          -------------
          GUESS OPTIONS
          -------------
          GUESS =MOREAD            NORB  =      50          NORDER=       0
          MIX   =       F          PRTMO =       T          PUNMO =       T
          TOLZ  = 1.0E-08          TOLE  = 1.0E-05
          SYMDEN=       F          PURIFY=       F

 INITIAL GUESS ORBITALS GENERATED BY MOREAD   ROUTINE.
 EIGENVALUES ARE DIAGONAL OF 1E- H IN MO BASIS

 SYMMETRIES FOR INITIAL GUESS ORBITALS FOLLOW.   BOTH SET(S).
     4 ORBITALS ARE OCCUPIED (    0 CORE ORBITALS).
     1=A        2=A        3=A        4=A        5=A        6=A        7=A   
     8=A        9=A       10=A       11=A       12=A       13=A       14=A   
    15=A       16=A       17=A       18=A       19=A       20=A       21=A   
    22=A       23=A       24=A       25=A       26=A       27=A       28=A   
    29=A       30=A       31=A       32=A       33=A       34=A       35=A   
    36=A       37=A       38=A       39=A       40=A       41=A       42=A   
    43=A       44=A       45=A       46=A       47=A       48=A       49=A   
    50=A       51=A       52=A       53=A       54=A       55=A       56=A   
    57=A       58=A       59=A       60=A       61=A       62=A       63=A   
    64=A       65=A       66=A       67=A       68=A       69=A       70=A   
    71=A       72=A       73=A       74=A       75=A       76=A       77=A   
    78=A       79=A       80=A       81=A       82=A       83=A       84=A   
    85=A       86=A       87=A       88=A       89=A       90=A       91=A   
    92=A       93=A       94=A   

                              ----------------------
                              INITIAL GUESS ORBITALS
                              ----------------------

                      1          2          3          4          5
                   -2.9691    -2.6517    -2.6517    -2.6517    -1.7701
                     A          A          A          A          A   
    1  SI 1  S    0.722997   0.000000  -0.000000   0.000000   0.000000
    2  SI 1  S    0.009647  -0.000000   0.000000   0.000000   0.000000
    3  SI 1  S   -0.240527   0.000000  -0.000000  -0.000000  -0.000000
    4  SI 1  X   -0.000000   0.570470  -0.216317   0.151017  -0.081441
    5  SI 1  Y   -0.000000  -0.019697  -0.393704  -0.489535  -0.146538
    6  SI 1  Z    0.000000   0.263080   0.439590  -0.364122   0.152263
    7  SI 1  X    0.000000  -0.003392   0.001286  -0.000898   0.063069
    8  SI 1  Y    0.000000   0.000117   0.002341   0.002911   0.113480
    9  SI 1  Z   -0.000000  -0.001564  -0.002614   0.002165  -0.117913
   10  SI 1  X    0.000000  -0.179286   0.067984  -0.047461   0.795745
   11  SI 1  Y    0.000000   0.006190   0.123732   0.153850   1.431791
   12  SI 1  Z   -0.000000  -0.082680  -0.138153   0.114435  -1.487724
   13  SI 1 XX    0.013938  -0.000000   0.000000   0.000000   0.000000
   14  SI 1 YY    0.013938  -0.000000   0.000000   0.000000   0.000000
   15  SI 1 ZZ    0.013938  -0.000000   0.000000   0.000000   0.000000
   16  SI 1 XY    0.000000   0.028838   0.048186  -0.039913   0.050638
   17  SI 1 XZ    0.000000  -0.002159  -0.043156  -0.053661  -0.048734
   18  SI 1 YZ    0.000000   0.062532  -0.023712   0.016554  -0.027085
   19  SI 1 XX    0.033467  -0.000000   0.000000   0.000000   0.000000
   20  SI 1 YY    0.033467  -0.000000   0.000000   0.000000   0.000000
   21  SI 1 ZZ    0.033467  -0.000000   0.000000   0.000000   0.000000
   22  SI 1 XY    0.000000   0.031747   0.053047  -0.043940  -0.068381
   23  SI 1 XZ   -0.000000  -0.002377  -0.047509  -0.059074   0.065810
   24  SI 1 YZ   -0.000000   0.068840  -0.026104   0.018224   0.036575
   25  SI 1 XXX   0.000000  -0.025036   0.009493  -0.006628   0.028201
   26  SI 1 YYY   0.000000   0.000864   0.017278   0.021484   0.050743
   27  SI 1 ZZZ  -0.000000  -0.011546  -0.019292   0.015980  -0.052725
   28  SI 1 XXY   0.000000  -0.000265  -0.005296  -0.006585   0.038816
   29  SI 1 XXZ  -0.000000   0.003539   0.005913  -0.004898  -0.040332
   30  SI 1 YYX   0.000000   0.007674  -0.002910   0.002031   0.021573
   31  SI 1 YYZ  -0.000000   0.003539   0.005913  -0.004898  -0.040332
   32  SI 1 ZZX   0.000000   0.007674  -0.002910   0.002031   0.021573
   33  SI 1 ZZY   0.000000  -0.000265  -0.005296  -0.006585   0.038816
   34  SI 1 XYZ   0.018493   0.000000  -0.000000   0.000000   0.000000
   35  H  2  S    0.305002   0.526618  -0.110280  -0.454656  -0.052636
   36  H  2  S   -0.070305  -0.050796   0.010637   0.043855  -0.349957
   37  H  2  S   -0.037811  -0.079456   0.016639   0.068599  -0.015525
   38  H  2  X   -0.007485  -0.000714  -0.000873   0.007413   0.013885
   39  H  2  Y   -0.007485  -0.006947  -0.002746   0.000648   0.019493
   40  H  2  Z   -0.007485  -0.003961   0.006053   0.001973  -0.006246
   41  H  2  X   -0.003083  -0.002859   0.000365   0.004023   0.000671
   42  H  2  Y   -0.003083  -0.004285  -0.000064   0.002475   0.002511
   43  H  2  Z   -0.003083  -0.003601   0.001950   0.002778  -0.005937
   44  H  2 XX   -0.000328  -0.000691   0.000399  -0.001096  -0.001128
   45  H  2 YY   -0.000328   0.000861   0.000866   0.000589  -0.002029
   46  H  2 ZZ   -0.000328   0.000117  -0.001325   0.000259   0.002106
   47  H  2 XY    0.001374   0.000463   0.000973  -0.000696  -0.000609
   48  H  2 XZ    0.001374  -0.000148  -0.000829  -0.000968   0.000303
   49  H  2 YZ    0.001374   0.001128  -0.000446   0.000418   0.000104
   50  H  3  S    0.305002  -0.186157   0.679169  -0.016568   0.264335
   51  H  3  S   -0.070305   0.017956  -0.065511   0.001598   1.757449
   52  H  3  S   -0.037811   0.028087  -0.102473   0.002500   0.077963
   53  H  3  X    0.007485   0.003642   0.006406   0.001383   0.041514
   54  H  3  Y    0.007485  -0.002590   0.004533  -0.005381   0.047122
   55  H  3  Z   -0.007485   0.005160  -0.004049  -0.003633  -0.047615
   56  H  3  X    0.003083  -0.000119   0.004942   0.000232  -0.005894
   57  H  3  Y    0.003083  -0.001545   0.004513  -0.001316  -0.004053
   58  H  3  Z   -0.003083   0.002134  -0.004402  -0.000747   0.003891
   59  H  3 XX   -0.000328   0.001214   0.000475   0.000372   0.001134
   60  H  3 YY   -0.000328  -0.000338   0.000008  -0.001313   0.002035
   61  H  3 ZZ   -0.000328  -0.000978  -0.000112   0.000932   0.002114
   62  H  3 XY    0.001374   0.000606   0.000814  -0.000784   0.000261
   63  H  3 XZ   -0.001374  -0.000080  -0.000715  -0.001062  -0.000278
   64  H  3 YZ   -0.001374   0.001197  -0.000331   0.000323  -0.000477
   65  H  4  S    0.305002  -0.552109  -0.399226  -0.178869  -0.151103
   66  H  4  S   -0.070305   0.053255   0.038508   0.017253  -1.004618
   67  H  4  S   -0.037811   0.083302   0.060235   0.026988  -0.044566
   68  H  4  X    0.007485  -0.001041  -0.007393  -0.000694  -0.012705
   69  H  4  Y   -0.007485   0.006857   0.000951  -0.002881   0.032344
   70  H  4  Z    0.007485  -0.004287  -0.000466  -0.006134  -0.032837
   71  H  4  X    0.003083  -0.003064  -0.003735  -0.001074   0.006988
   72  H  4  Y   -0.003083   0.004395   0.002261   0.000256  -0.000542
   73  H  4  Z    0.003083  -0.003807  -0.002150  -0.002319   0.000380
   74  H  4 XX   -0.000328   0.000652  -0.001182   0.000122   0.001124
   75  H  4 YY   -0.000328  -0.000797   0.000422   0.001012  -0.002032
   76  H  4 ZZ   -0.000328  -0.000157   0.000542  -0.001232  -0.002111
   77  H  4 XY   -0.001374   0.000458   0.000871  -0.000824  -0.000050
   78  H  4 XZ    0.001374   0.000068  -0.000771  -0.001023   0.000033
   79  H  4 YZ   -0.001374   0.001123  -0.000548   0.000291   0.000663
   80  H  5  S    0.305002   0.211648  -0.169663   0.650092  -0.060595
   81  H  5  S   -0.070305  -0.020415   0.016365  -0.062706  -0.402873
   82  H  5  S   -0.037811  -0.031934   0.025599  -0.098086  -0.017872
   83  H  5  X   -0.007485   0.003316  -0.000113  -0.006724   0.014924
   84  H  5  Y    0.007485   0.002500  -0.006329   0.003149   0.004715
   85  H  5  Z    0.007485   0.005486   0.002471   0.004473  -0.021025
   86  H  5  X   -0.003083  -0.000324   0.000842  -0.004866   0.000424
   87  H  5  Y    0.003083   0.001655  -0.002317   0.004048   0.006022
   88  H  5  Z    0.003083   0.002339  -0.000303   0.004351  -0.002426
   89  H  5 XX   -0.000328  -0.001175   0.000308   0.000602  -0.001129
   90  H  5 YY   -0.000328   0.000273  -0.001296  -0.000288   0.002027
   91  H  5 ZZ   -0.000328   0.001017   0.000895   0.000042  -0.002109
   92  H  5 XY   -0.001374   0.000612   0.000917  -0.000657  -0.000298
   93  H  5 XZ   -0.001374  -0.000000  -0.000886  -0.000928   0.000613
   94  H  5 YZ    0.001374   0.001191  -0.000434   0.000196   0.000082

                      6          7          8          9         10
                   -1.7701    -1.7701    -1.6741    -1.0293     8.3349
                     A          A          A          A          A   
    1  SI 1  S   -0.000000   0.000000   1.671609   4.187646  21.238212
    2  SI 1  S   -0.000000   0.000000  -2.219975  -5.915823   0.334917
    3  SI 1  S    0.000000  -0.000000  11.911429  27.919027  -9.199967
    4  SI 1  X    0.062856  -0.201758  -0.000000   0.000000   0.000000
    5  SI 1  Y   -0.172591   0.005382  -0.000000   0.000000   0.000000
    6  SI 1  Z   -0.132482  -0.102735   0.000000  -0.000000   0.000000
    7  SI 1  X   -0.048676   0.156243   0.000000  -0.000000  -0.000000
    8  SI 1  Y    0.133655  -0.004168   0.000000  -0.000000  -0.000000
    9  SI 1  Z    0.102595   0.079559  -0.000000   0.000000   0.000000
   10  SI 1  X   -0.614150   1.971337   0.000000  -0.000000  -0.000000
   11  SI 1  Y    1.686347  -0.052589   0.000000  -0.000000  -0.000000
   12  SI 1  Z    1.294454   1.003805  -0.000000   0.000000   0.000000
   13  SI 1 XX    0.000000   0.000000  -0.832343  -2.280606  -3.624908
   14  SI 1 YY    0.000000   0.000000  -0.832343  -2.280606  -3.624908
   15  SI 1 ZZ    0.000000   0.000000  -0.832343  -2.280606  -3.624908
   16  SI 1 XY   -0.044060  -0.034167   0.000000   0.000000   0.000000
   17  SI 1 XZ   -0.057399   0.001790  -0.000000   0.000000   0.000000
   18  SI 1 YZ    0.020904  -0.067099  -0.000000   0.000000   0.000000
   19  SI 1 XX   -0.000000   0.000000  -2.543895  -8.025607  -0.707927
   20  SI 1 YY   -0.000000   0.000000  -2.543895  -8.025607  -0.707927
   21  SI 1 ZZ   -0.000000   0.000000  -2.543895  -8.025607  -0.707927
   22  SI 1 XY    0.059498   0.046138   0.000000   0.000000   0.000000
   23  SI 1 XZ    0.077510  -0.002417   0.000000  -0.000000   0.000000
   24  SI 1 YZ   -0.028228   0.090609   0.000000  -0.000000  -0.000000
   25  SI 1 XXX  -0.021766   0.069864   0.000000  -0.000000  -0.000000
   26  SI 1 YYY   0.059764  -0.001864   0.000000  -0.000000  -0.000000
   27  SI 1 ZZZ   0.045876   0.035575  -0.000000   0.000000   0.000000
   28  SI 1 XXY   0.045717  -0.001426   0.000000  -0.000000   0.000000
   29  SI 1 XXZ   0.035093   0.027213   0.000000   0.000000   0.000000
   30  SI 1 YYX  -0.016650   0.053443   0.000000  -0.000000  -0.000000
   31  SI 1 YYZ   0.035093   0.027213   0.000000   0.000000   0.000000
   32  SI 1 ZZX  -0.016650   0.053443   0.000000  -0.000000  -0.000000
   33  SI 1 ZZY   0.045717  -0.001426   0.000000  -0.000000   0.000000
   34  SI 1 XYZ  -0.000000   0.000000   0.314761   0.694427   0.841654
   35  H  2  S   -0.168383  -0.207935  -0.135747   0.270247   0.253857
   36  H  2  S   -1.119509  -1.382470  -0.950398  -2.532707  -0.218535
   37  H  2  S   -0.049663  -0.061328  -1.087819  -0.334000  -1.457921
   38  H  2  X    0.016562   0.044518   0.174335   0.326940   0.512149
   39  H  2  Y    0.036843   0.026674   0.174335   0.326940   0.512149
   40  H  2  Z    0.033388   0.035988   0.174335   0.326940   0.512149
   41  H  2  X   -0.006998  -0.000743  -0.003958  -0.003595  -0.070219
   42  H  2  Y   -0.000341  -0.006600  -0.003958  -0.003595  -0.070219
   43  H  2  Z   -0.001475  -0.003543  -0.003958  -0.003595  -0.070219
   44  H  2 XX    0.000866  -0.002797   0.037149   0.003805  -0.009403
   45  H  2 YY   -0.002393   0.000070   0.037149   0.003805  -0.009403
   46  H  2 ZZ   -0.001838  -0.001427   0.037149   0.003805  -0.009403
   47  H  2 XY   -0.000058  -0.000257  -0.013793  -0.015464  -0.065845
   48  H  2 XZ    0.000065  -0.000587  -0.013793  -0.015464  -0.065845
   49  H  2 YZ   -0.000654   0.000045  -0.013793  -0.015464  -0.065845
   50  H  3  S   -0.015813   0.065097  -0.135747   0.270247   0.253857
   51  H  3  S   -0.105135   0.432800  -0.950398  -2.532707  -0.218535
   52  H  3  S   -0.004664   0.019200  -1.087819  -0.334000  -1.457921
   53  H  3  X   -0.007478   0.025876  -0.174335  -0.326940  -0.512149
   54  H  3  Y    0.012803   0.008032  -0.174335  -0.326940  -0.512149
   55  H  3  Z    0.013476   0.000354   0.174335   0.326940   0.512149
   56  H  3  X   -0.001287   0.003686   0.003958   0.003595   0.070219
   57  H  3  Y    0.005370  -0.002171   0.003958   0.003595   0.070219
   58  H  3  Z    0.003255   0.004923  -0.003958  -0.003595  -0.070219
   59  H  3 XX   -0.000870   0.002794   0.037149   0.003805  -0.009403
   60  H  3 YY    0.002388  -0.000073   0.037149   0.003805  -0.009403
   61  H  3 ZZ   -0.001834  -0.001420   0.037149   0.003805  -0.009403
   62  H  3 XY    0.000361   0.000492  -0.013793  -0.015464  -0.065845
   63  H  3 XZ    0.000570  -0.000195   0.013793   0.015464   0.065845
   64  H  3 YZ   -0.000148   0.000437   0.013793   0.015464   0.065845
   65  H  4  S   -0.071578   0.215418  -0.135747   0.270247   0.253857
   66  H  4  S   -0.475894   1.432223  -0.950398  -2.532707  -0.218535
   67  H  4  S   -0.021111   0.063536  -1.087819  -0.334000  -1.457921
   68  H  4  X   -0.014756   0.045494  -0.174335  -0.326940  -0.512149
   69  H  4  Y    0.024209  -0.028578   0.174335   0.326940   0.512149
   70  H  4  Z    0.002070   0.036964  -0.174335  -0.326940  -0.512149
   71  H  4  X    0.000442  -0.000975   0.003958   0.003595   0.070219
   72  H  4  Y    0.002660   0.006528  -0.003958  -0.003595  -0.070219
   73  H  4  Z    0.005965  -0.003775   0.003958   0.003595   0.070219
   74  H  4 XX   -0.000872   0.002798   0.037149   0.003805  -0.009403
   75  H  4 YY   -0.002391   0.000080   0.037149   0.003805  -0.009403
   76  H  4 ZZ    0.001832   0.001427   0.037149   0.003805  -0.009403
   77  H  4 XY    0.000601  -0.000277   0.013793   0.015464   0.065845
   78  H  4 XZ    0.000330   0.000575  -0.013793  -0.015464  -0.065845
   79  H  4 YZ    0.000005   0.000025   0.013793   0.015464   0.065845
   80  H  5  S    0.255775  -0.072580  -0.135747   0.270247   0.253857
   81  H  5  S    1.700538  -0.482553  -0.950398  -2.532707  -0.218535
   82  H  5  S    0.075438  -0.021407  -1.087819  -0.334000  -1.457921
   83  H  5  X   -0.038796   0.026852   0.174335   0.326940   0.512149
   84  H  5  Y    0.048249  -0.009936  -0.174335  -0.326940  -0.512149
   85  H  5  Z    0.044794  -0.000623  -0.174335  -0.326940  -0.512149
   86  H  5  X    0.006154   0.003454  -0.003958  -0.003595  -0.070219
   87  H  5  Y   -0.003051   0.002098   0.003958   0.003595   0.070219
   88  H  5  Z   -0.004185   0.005155   0.003958   0.003595   0.070219
   89  H  5 XX    0.000876  -0.002794   0.037149   0.003805  -0.009403
   90  H  5 YY    0.002395  -0.000076   0.037149   0.003805  -0.009403
   91  H  5 ZZ    0.001840   0.001420   0.037149   0.003805  -0.009403
   92  H  5 XY   -0.000297   0.000513   0.013793   0.015464   0.065845
   93  H  5 XZ   -0.000175   0.000183   0.013793   0.015464   0.065845
   94  H  5 YZ    0.000510   0.000417  -0.013793  -0.015464  -0.065845

                     11         12         13         14         15
                    0.4004     0.4004     0.4004    -0.4934    -0.4934
                     A          A          A          A          A   
    1  SI 1  S   -0.000000  -0.000000   0.000000  -0.000000   0.000000
    2  SI 1  S    0.000000   0.000000  -0.000000   0.000000   0.000000
    3  SI 1  S   -0.000000  -0.000000   0.000000  -0.000000  -0.000000
    4  SI 1  X   -2.218720  22.467955  -7.663918  -0.009262  -0.023894
    5  SI 1  Y   23.684405   2.617267   0.816237   0.018209  -0.001466
    6  SI 1  Z   -1.610469   7.537126  22.562479   0.016955  -0.011478
    7  SI 1  X    0.599800  -6.073902   2.071835  -0.118270  -0.305130
    8  SI 1  Y   -6.402753  -0.707542  -0.220659   0.232528  -0.018716
    9  SI 1  Z    0.435368  -2.037558  -6.099456   0.216520  -0.146572
   10  SI 1  X    1.066896 -10.803964   3.685280  -0.313393  -0.808539
   11  SI 1  Y  -11.388907  -1.258542  -0.392497   0.616157  -0.049593
   12  SI 1  Z    0.774412  -3.624310 -10.849417   0.573738  -0.388389
   13  SI 1 XX    0.000000   0.000000  -0.000000   0.000000   0.000000
   14  SI 1 YY    0.000000   0.000000  -0.000000   0.000000   0.000000
   15  SI 1 ZZ    0.000000   0.000000  -0.000000   0.000000   0.000000
   16  SI 1 XY   -0.028634   0.134008   0.401155   0.923924  -0.625445
   17  SI 1 XZ    0.421103   0.046534   0.014512   0.992234  -0.079863
   18  SI 1 YZ   -0.039448   0.399475  -0.136263  -0.504676  -1.302037
   19  SI 1 XX    0.000000   0.000000  -0.000000   0.000000   0.000000
   20  SI 1 YY    0.000000   0.000000  -0.000000   0.000000   0.000000
   21  SI 1 ZZ    0.000000   0.000000  -0.000000   0.000000   0.000000
   22  SI 1 XY   -0.108264   0.506685   1.516768   1.574828  -1.066071
   23  SI 1 XZ    1.592190   0.175946   0.054872   1.691261  -0.136127
   24  SI 1 YZ   -0.149154   1.510414  -0.515209  -0.860220  -2.219321
   25  SI 1 XXX   0.449470  -4.551579   1.552564  -0.612809  -1.581014
   26  SI 1 YYY  -4.798009  -0.530208  -0.165354   1.204832  -0.096975
   27  SI 1 ZZZ   0.326250  -1.526878  -4.570728   1.121886  -0.759455
   28  SI 1 XXY  -1.550913  -0.171385  -0.053449   1.437081  -0.115668
   29  SI 1 XXZ   0.105457  -0.493549  -1.477446   1.338147  -0.905851
   30  SI 1 YYX   0.145287  -1.471256   0.501852  -0.730937  -1.885779
   31  SI 1 YYZ   0.105457  -0.493549  -1.477446   1.338147  -0.905851
   32  SI 1 ZZX   0.145287  -1.471256   0.501852  -0.730937  -1.885779
   33  SI 1 ZZY  -1.550913  -0.171385  -0.053449   1.437081  -0.115668
   34  SI 1 XYZ  -0.000000  -0.000000   0.000000  -0.000000  -0.000000
   35  H  2  S    1.314869   2.160346   1.040679   0.434289  -0.617626
   36  H  2  S   -0.181907  -0.298876  -0.143974  -0.544376   0.774187
   37  H  2  S   -2.833706  -4.655812  -2.242792  -3.186455   4.531633
   38  H  2  X    0.319457   0.511162   0.255942   0.795711  -1.265052
   39  H  2  Y    0.305858   0.521583   0.251490   0.894598  -1.184314
   40  H  2  Z    0.319137   0.519000   0.240073   0.890086  -1.220355
   41  H  2  X   -0.001405  -0.048736   0.009392  -0.016982   0.051390
   42  H  2  Y   -0.047459  -0.013443  -0.005685  -0.037170   0.034908
   43  H  2  Z   -0.002486  -0.022190  -0.044349  -0.036248   0.042265
   44  H  2 XX    0.131421   0.238222   0.098972   0.028883  -0.068919
   45  H  2 YY    0.153537   0.221274   0.106212   0.049518  -0.052071
   46  H  2 ZZ    0.131941   0.225474   0.124778   0.048577  -0.059592
   47  H  2 XY   -0.009333  -0.002578   0.022473  -0.038984   0.057107
   48  H  2 XZ    0.022353  -0.008741  -0.004768  -0.038819   0.058427
   49  H  2 YZ   -0.010095   0.016125  -0.015390  -0.042440   0.055471
   50  H  3  S   -1.528169  -1.162085   1.947625   0.134263   0.232748
   51  H  3  S    0.211416   0.160770  -0.269447  -0.168297  -0.291747
   52  H  3  S    3.293394   2.504437  -4.197373  -0.985108  -1.707716
   53  H  3  X    0.371090   0.269512  -0.467440  -0.289644  -0.530327
   54  H  3  Y    0.357492   0.279933  -0.471892  -0.190756  -0.449588
   55  H  3  Z   -0.369080  -0.285264   0.459619   0.317340   0.402995
   56  H  3  X   -0.002273  -0.044674   0.021550   0.014160   0.030308
   57  H  3  Y   -0.048327  -0.009381   0.006473  -0.006027   0.013826
   58  H  3  Z    0.009081  -0.008673  -0.048038  -0.019814  -0.004314
   59  H  3 XX   -0.153048  -0.137007   0.204015   0.018037   0.037156
   60  H  3 YY   -0.175163  -0.120059   0.196775  -0.002598   0.020309
   61  H  3 ZZ   -0.156317  -0.111390   0.216734   0.023816   0.010586
   62  H  3 XY    0.006485   0.015907   0.017427  -0.010508  -0.023603
   63  H  3 XZ    0.021166  -0.003187   0.011858   0.015143   0.021897
   64  H  3 YZ   -0.011282   0.021679   0.001236   0.011522   0.018941
   65  H  4  S    1.822029  -1.813700  -0.932572   0.176298   0.568481
   66  H  4  S   -0.252071   0.250919   0.129018  -0.220987  -0.712585
   67  H  4  S   -3.926698   3.908747   2.009808  -1.293529  -4.171047
   68  H  4  X   -0.439896   0.427249   0.229772  -0.369889  -1.171235
   69  H  4  Y    0.428627  -0.440418  -0.226177   0.402098   1.079945
   70  H  4  Z   -0.440215   0.435087   0.213904  -0.275514  -1.126538
   71  H  4  X    0.011358  -0.047325   0.009832   0.016463   0.048698
   72  H  4  Y   -0.049522   0.002726   0.002343  -0.023038  -0.030062
   73  H  4  Z    0.010276  -0.020779  -0.043909  -0.002803   0.039573
   74  H  4 XX    0.186631  -0.203075  -0.088011   0.021506   0.064863
   75  H  4 YY    0.204958  -0.181658  -0.093857   0.028227   0.045814
   76  H  4 ZZ    0.186112  -0.190327  -0.113817   0.001813   0.055536
   77  H  4 XY    0.008120  -0.000649   0.023075   0.018968   0.052443
   78  H  4 XZ    0.019531   0.013369   0.006211  -0.014333  -0.054149
   79  H  4 YZ    0.007358   0.018054  -0.014789   0.015512   0.050806
   80  H  5  S   -1.608729   0.815439  -2.055732  -0.744850  -0.183603
   81  H  5  S    0.222562  -0.112813   0.284403   0.933660   0.230145
   82  H  5  S    3.467011  -1.757373   4.430357   5.465092   1.347130
   83  H  5  X   -0.388262   0.185599  -0.493610  -1.455244  -0.436510
   84  H  5  Y    0.376993  -0.198768   0.497205   1.487453   0.345220
   85  H  5  Z    0.390272  -0.201351   0.485788   1.482940   0.309178
   86  H  5  X    0.010490  -0.043264   0.021990   0.047605   0.027616
   87  H  5  Y   -0.048654  -0.001336  -0.009815  -0.054181  -0.008980
   88  H  5  Z   -0.003682  -0.010083  -0.048478  -0.053259  -0.001622
   89  H  5 XX   -0.165005   0.101860  -0.214976  -0.068427  -0.033101
   90  H  5 YY   -0.183331   0.080444  -0.209129  -0.075148  -0.014051
   91  H  5 ZZ   -0.161735   0.076243  -0.227695  -0.074206  -0.006530
   92  H  5 XY   -0.010968   0.013978   0.016826  -0.068460  -0.018939
   93  H  5 XZ    0.020718   0.007815  -0.010415  -0.068295  -0.017619
   94  H  5 YZ    0.006171   0.023608   0.001837   0.069474   0.014277

                     16         17         18         19         20
                   -0.4934    -0.2633    -1.6472    -1.6472    -1.6472
                     A          A          A          A          A   
    1  SI 1  S    0.000000   1.493401  -0.000000   0.000000   0.000000
    2  SI 1  S   -0.000000  -4.741444   0.000000   0.000000   0.000000
    3  SI 1  S    0.000000  16.133677  -0.000000  -0.000000  -0.000000
    4  SI 1  X    0.006936  -0.000000   0.266149  -0.537595  -1.406788
    5  SI 1  Y    0.019264  -0.000000  -1.101460  -1.043743   0.190476
    6  SI 1  Z   -0.016900  -0.000000  -1.027057   0.980044  -0.568826
    7  SI 1  X    0.088577   0.000000  -0.073131   0.147718   0.386552
    8  SI 1  Y    0.246005   0.000000   0.302655   0.286796  -0.052338
    9  SI 1  Z   -0.215809   0.000000   0.282211  -0.269293   0.156300
   10  SI 1  X    0.234712   0.000000  -0.617146   1.246575   3.262057
   11  SI 1  Y    0.651868   0.000000   2.554064   2.420230  -0.441675
   12  SI 1  Z   -0.571856   0.000000   2.381538  -2.272525   1.318993
   13  SI 1 XX   -0.000000  -1.947876   0.000000   0.000000  -0.000000
   14  SI 1 YY   -0.000000  -1.947876   0.000000   0.000000  -0.000000
   15  SI 1 ZZ   -0.000000  -1.947876   0.000000   0.000000  -0.000000
   16  SI 1 XY   -0.920893   0.000000   0.108622  -0.103650   0.060159
   17  SI 1 XZ    1.049741   0.000000   0.116491   0.110386  -0.020145
   18  SI 1 YZ    0.377971   0.000000  -0.028148   0.056856   0.148782
   19  SI 1 XX   -0.000000  -5.574473   0.000000   0.000000  -0.000000
   20  SI 1 YY   -0.000000  -5.574473   0.000000   0.000000  -0.000000
   21  SI 1 ZZ   -0.000000  -5.574473   0.000000   0.000000  -0.000000
   22  SI 1 XY   -1.569661   0.000000   1.016504  -0.969975   0.562981
   23  SI 1 XZ    1.789282   0.000000   1.090143   1.033019  -0.188519
   24  SI 1 YZ    0.644252   0.000000  -0.263414   0.532072   1.392333
   25  SI 1 XXX   0.458956   0.000000  -0.027484   0.055515   0.145273
   26  SI 1 YYY   1.274660   0.000000   0.113743   0.107783  -0.019670
   27  SI 1 ZZZ  -1.118205   0.000000   0.106060  -0.101205   0.058740
   28  SI 1 XXY   1.520370   0.000000   0.201117   0.190579  -0.034779
   29  SI 1 XXZ  -1.333756   0.000000   0.187532  -0.178948   0.103863
   30  SI 1 YYX   0.547427   0.000000  -0.048597   0.098160   0.256868
   31  SI 1 YYZ  -1.333756   0.000000   0.187532  -0.178948   0.103863
   32  SI 1 ZZX   0.547427   0.000000  -0.048597   0.098160   0.256868
   33  SI 1 ZZY   1.520370   0.000000   0.201117   0.190579  -0.034779
   34  SI 1 XYZ   0.000000  -0.034347  -0.000000  -0.000000   0.000000
   35  H  2  S    0.155940  -2.866399   0.236348   0.076309   0.226547
   36  H  2  S   -0.195469  -0.521706  -2.274345  -0.734307  -2.180030
   37  H  2  S   -1.144156   4.397084  -0.406304  -0.131182  -0.389455
   38  H  2  X    0.322655  -0.397357   0.176368   0.061682   0.181685
   39  H  2  Y    0.367033  -0.397357   0.186762   0.065529   0.169545
   40  H  2  Z    0.236851  -0.397357   0.186197   0.050148   0.175316
   41  H  2  X   -0.013639   0.032017  -0.008293  -0.004187  -0.011973
   42  H  2  Y   -0.022699   0.032017  -0.011605  -0.005413  -0.008105
   43  H  2  Z    0.003878   0.032017  -0.011424  -0.000512  -0.009944
   44  H  2 XX    0.018079  -0.343855  -0.004430  -0.004921  -0.013550
   45  H  2 YY    0.027340  -0.343855  -0.012086  -0.007755  -0.004608
   46  H  2 ZZ    0.000175  -0.343855  -0.011670   0.003576  -0.008859
   47  H  2 XY   -0.017028  -0.014915  -0.007157  -0.006933  -0.008325
   48  H  2 XZ   -0.012261  -0.014915  -0.006895   0.000199  -0.011001
   49  H  2 YZ   -0.013886  -0.014915  -0.011715  -0.001585  -0.005372
   50  H  3  S   -0.722626  -2.866399   0.024334  -0.325058  -0.082171
   51  H  3  S    0.905803  -0.521706  -0.234162   3.127990   0.790717
   52  H  3  S    5.302033   4.397084  -0.041832   0.558805   0.141259
   53  H  3  X    1.404449   0.397357  -0.020390   0.249433   0.072713
   54  H  3  Y    1.448827   0.397357  -0.009995   0.253280   0.060573
   55  H  3  Z   -1.440315  -0.397357   0.026173  -0.252796  -0.057698
   56  H  3  X   -0.044679  -0.032017   0.001565  -0.013593  -0.006514
   57  H  3  Y   -0.053739  -0.032017  -0.001747  -0.014819  -0.002646
   58  H  3  Z    0.052001   0.032017  -0.003407   0.014665   0.001730
   59  H  3 XX   -0.064846  -0.343855  -0.002100   0.011151   0.009934
   60  H  3 YY   -0.074106  -0.343855   0.005557   0.013985   0.000992
   61  H  3 ZZ   -0.072330  -0.343855  -0.006359   0.013628  -0.001127
   62  H  3 XY    0.066358  -0.014915   0.002510   0.011368   0.005751
   63  H  3 XZ   -0.066046   0.014915   0.004991  -0.011143  -0.004418
   64  H  3 YZ   -0.067671   0.014915   0.000172  -0.012927   0.001211
   65  H  4  S    0.490035  -2.866399   0.043219   0.188609  -0.274893
   66  H  4  S   -0.614253  -0.521706  -0.415886  -1.814955   2.645253
   67  H  4  S   -3.595474   4.397084  -0.074297  -0.324236   0.472566
   68  H  4  X   -0.910499   0.397357  -0.034643  -0.138272   0.218175
   69  H  4  Y    1.004816  -0.397357   0.040992   0.150291  -0.208931
   70  H  4  Z   -0.996304   0.397357  -0.024815  -0.149807   0.211807
   71  H  4  X    0.021744  -0.032017   0.002279   0.005830  -0.013801
   72  H  4  Y   -0.040999   0.032017  -0.004302  -0.009660   0.010856
   73  H  4  Z    0.039261  -0.032017  -0.000853   0.009505  -0.011772
   74  H  4 XX    0.035231  -0.343855  -0.002572  -0.001714   0.014761
   75  H  4 YY    0.054911  -0.343855  -0.007249  -0.010567   0.007951
   76  H  4 ZZ    0.053135  -0.343855   0.004668  -0.010211   0.010070
   77  H  4 XY    0.044283   0.014915   0.005590   0.005146  -0.010529
   78  H  4 XZ   -0.043971  -0.014915   0.001911  -0.004922   0.011863
   79  H  4 YZ    0.047424   0.014915   0.001033   0.010494  -0.007576
   80  H  5  S    0.076651  -2.866399  -0.303901   0.060141   0.130516
   81  H  5  S   -0.096081  -0.521706   2.924393  -0.578727  -1.255940
   82  H  5  S   -0.562402   4.397084   0.522433  -0.103388  -0.224369
   83  H  5  X    0.171295  -0.397357  -0.231401   0.049479   0.109203
   84  H  5  Y   -0.076978   0.397357   0.237749  -0.037460  -0.099959
   85  H  5  Z   -0.207161   0.397357   0.237184  -0.052842  -0.094188
   86  H  5  X   -0.009296   0.032017   0.012136  -0.003576  -0.008342
   87  H  5  Y   -0.009958  -0.032017  -0.014159  -0.000253   0.005397
   88  H  5  Z    0.016618  -0.032017  -0.013979   0.004648   0.003558
   89  H  5 XX    0.011536  -0.343855   0.009102  -0.004516  -0.011145
   90  H  5 YY   -0.008145  -0.343855   0.013778   0.004337  -0.004335
   91  H  5 ZZ    0.019020  -0.343855   0.013362  -0.006993  -0.000084
   92  H  5 XY    0.005048   0.014915  -0.010237  -0.000712   0.007956
   93  H  5 XZ    0.009814   0.014915  -0.009975   0.006420   0.005280
   94  H  5 YZ   -0.006361  -0.014915   0.012919  -0.000848  -0.000993

                     21         22         23         24         25
                   -0.7744    -0.6358    -0.6358    -0.6358     1.9825
                     A          A          A          A          A   
    1  SI 1  S    3.354562   0.000000   0.000000   0.000000   7.219543
    2  SI 1  S   -2.623324  -0.000000  -0.000000  -0.000000  -0.470553
    3  SI 1  S    7.393713   0.000000   0.000000   0.000000   3.986360
    4  SI 1  X    0.000000   1.603257   1.102420  -0.584323   0.000000
    5  SI 1  Y    0.000000  -0.465910   1.411560   1.384782   0.000000
    6  SI 1  Z   -0.000000   1.157450  -0.958834   1.366800  -0.000000
    7  SI 1  X   -0.000000  -0.376270  -0.258728   0.137135  -0.000000
    8  SI 1  Y   -0.000000   0.109345  -0.331280  -0.324996  -0.000000
    9  SI 1  Z   -0.000000  -0.271643   0.225030  -0.320776   0.000000
   10  SI 1  X   -0.000000  -0.500991  -0.344488   0.182591  -0.000000
   11  SI 1  Y   -0.000000   0.145589  -0.441089  -0.432721  -0.000000
   12  SI 1  Z   -0.000000  -0.361684   0.299620  -0.427102   0.000000
   13  SI 1 XX   -1.972240  -0.000000  -0.000000  -0.000000  -2.034952
   14  SI 1 YY   -1.972240  -0.000000  -0.000000  -0.000000  -2.034952
   15  SI 1 ZZ   -1.972240  -0.000000  -0.000000  -0.000000  -2.034952
   16  SI 1 XY   -0.000000   0.075233  -0.062323   0.088840  -0.000000
   17  SI 1 XZ   -0.000000  -0.030284   0.091750   0.090009   0.000000
   18  SI 1 YZ   -0.000000   0.104210   0.071656  -0.037980   0.000000
   19  SI 1 XX   -3.868007  -0.000000  -0.000000  -0.000000  -2.056389
   20  SI 1 YY   -3.868007  -0.000000  -0.000000  -0.000000  -2.056389
   21  SI 1 ZZ   -3.868007  -0.000000  -0.000000  -0.000000  -2.056389
   22  SI 1 XY   -0.000000   0.385975  -0.319743   0.455787  -0.000000
   23  SI 1 XZ   -0.000000  -0.155367   0.470714   0.461784   0.000000
   24  SI 1 YZ   -0.000000   0.534639   0.367625  -0.194854   0.000000
   25  SI 1 XXX  -0.000000  -1.306964  -0.898685   0.476336   0.000000
   26  SI 1 YYY  -0.000000   0.379806  -1.150694  -1.128865  -0.000000
   27  SI 1 ZZZ  -0.000000  -0.943545   0.781635  -1.114205   0.000000
   28  SI 1 XXY  -0.000000  -0.055364   0.167736   0.164554  -0.000000
   29  SI 1 XXZ  -0.000000   0.137540  -0.113939   0.162417  -0.000000
   30  SI 1 YYX  -0.000000   0.190516   0.131001  -0.069435   0.000000
   31  SI 1 YYZ  -0.000000   0.137540  -0.113939   0.162417  -0.000000
   32  SI 1 ZZX  -0.000000   0.190516   0.131001  -0.069435   0.000000
   33  SI 1 ZZY  -0.000000  -0.055364   0.167736   0.164554  -0.000000
   34  SI 1 XYZ  -1.886874   0.000000   0.000000   0.000000   0.024615
   35  H  2  S    0.771423  -2.485656  -1.684488  -2.347510   1.003807
   36  H  2  S   -0.624784   0.127073   0.086115   0.120010  -1.250754
   37  H  2  S    0.897988   2.472829   1.675795   2.335397   0.070219
   38  H  2  X   -0.378248   0.161845   0.113389  -0.336119   0.298284
   39  H  2  Y   -0.378248  -0.320295   0.185423   0.122706   0.298284
   40  H  2  Z   -0.378248   0.057967  -0.366908   0.118515   0.298284
   41  H  2  X    0.001614  -0.018887  -0.013085   0.019799  -0.245478
   42  H  2  Y    0.001614   0.018223  -0.018629  -0.015517  -0.245478
   43  H  2  Z    0.001614  -0.010891   0.023883  -0.015194  -0.245478
   44  H  2 XX    0.112056  -0.283465  -0.192188  -0.256121  -0.383301
   45  H  2 YY    0.112056  -0.272037  -0.193895  -0.266996  -0.383301
   46  H  2 ZZ    0.112056  -0.281003  -0.180803  -0.266897  -0.383301
   47  H  2 XY    0.046956  -0.015505   0.012623  -0.018275  -0.089565
   48  H  2 XZ    0.046956   0.006035  -0.018830  -0.018514  -0.089565
   49  H  2 YZ    0.046956  -0.021421  -0.014728   0.007614  -0.089565
   50  H  3  S    0.771423  -0.021775   3.761649  -0.613442   1.003807
   51  H  3  S   -0.624784   0.001113  -0.192304   0.031361  -1.250754
   52  H  3  S    0.897988   0.021663  -3.742238   0.610277   0.070219
   53  H  3  X    0.378248   0.375433  -0.063547  -0.083900  -0.298284
   54  H  3  Y    0.378248  -0.106708   0.008486   0.374925  -0.298284
   55  H  3  Z   -0.378248   0.267845   0.097004   0.266227   0.298284
   56  H  3  X   -0.001614  -0.028840  -0.004839   0.008044   0.245478
   57  H  3  Y   -0.001614   0.008269  -0.010383  -0.027271   0.245478
   58  H  3  Z    0.001614  -0.020672   0.002264  -0.022078  -0.245478
   59  H  3 XX    0.112056   0.006449   0.421668  -0.070999  -0.383301
   60  H  3 YY    0.112056  -0.004979   0.423376  -0.060124  -0.383301
   61  H  3 ZZ    0.112056  -0.008798   0.420875  -0.075321  -0.383301
   62  H  3 XY    0.046956  -0.015360   0.012946  -0.018172  -0.089565
   63  H  3 XZ   -0.046956   0.006183  -0.018953  -0.018338   0.089565
   64  H  3 YZ   -0.046956  -0.021272  -0.014851   0.007790   0.089565
   65  H  4  S    0.771423   3.494975  -1.373432  -0.652399   1.003807
   66  H  4  S   -0.624784  -0.178671   0.070213   0.033352  -1.250754
   67  H  4  S    0.897988  -3.476940   1.366344   0.649032   0.070219
   68  H  4  X    0.378248   0.075870   0.373868  -0.080582  -0.298284
   69  H  4  Y   -0.378248   0.189146   0.211919   0.267098   0.298284
   70  H  4  Z    0.378248  -0.028008  -0.106428   0.374053  -0.298284
   71  H  4  X   -0.001614  -0.014880  -0.025224   0.007890   0.245478
   72  H  4  Y    0.001614  -0.005518  -0.019864  -0.022246  -0.245478
   73  H  4  Z   -0.001614  -0.006884   0.011744  -0.027103   0.245478
   74  H  4 XX    0.112056   0.394973  -0.145645  -0.075303  -0.383301
   75  H  4 YY    0.112056   0.388691  -0.159530  -0.079724  -0.383301
   76  H  4 ZZ    0.112056   0.392511  -0.157030  -0.064527  -0.383301
   77  H  4 XY   -0.046956  -0.015565   0.012804  -0.018097   0.089565
   78  H  4 XZ    0.046956   0.006389  -0.018811  -0.018413  -0.089565
   79  H  4 YZ   -0.046956  -0.021481  -0.014547   0.007792   0.089565
   80  H  5  S    0.771423  -0.987544  -0.703730   3.613352   1.003807
   81  H  5  S   -0.624784   0.050486   0.035976  -0.184723  -1.250754
   82  H  5  S    0.897988   0.982448   0.700098  -3.594706   0.070219
   83  H  5  X   -0.378248   0.289457   0.196932   0.171638   0.298284
   84  H  5  Y    0.378248  -0.024442   0.388855   0.014879  -0.298284
   85  H  5  Z    0.378248   0.353821  -0.163475   0.010689  -0.298284
   86  H  5  X    0.001614  -0.024834  -0.016978  -0.003864  -0.245478
   87  H  5  Y   -0.001614   0.004436  -0.028109  -0.010492   0.245478
   88  H  5  Z   -0.001614  -0.024679   0.014403  -0.010169   0.245478
   89  H  5 XX    0.112056  -0.117957  -0.083835   0.402423  -0.383301
   90  H  5 YY    0.112056  -0.111675  -0.069951   0.406844  -0.383301
   91  H  5 ZZ    0.112056  -0.102709  -0.083042   0.406745  -0.383301
   92  H  5 XY   -0.046956  -0.015300   0.012764  -0.018350   0.089565
   93  H  5 XZ   -0.046956   0.006241  -0.018688  -0.018589   0.089565
   94  H  5 YZ    0.046956  -0.021332  -0.014670   0.007967  -0.089565

                     26         27         28         29         30
                   -1.0466    -1.0466    -0.9423    -0.9423     2.2293
                     A          A          A          A          A   
    1  SI 1  S   -0.000000   0.000000   0.000000  -0.000000   0.000000
    2  SI 1  S    0.000000  -0.000000  -0.000000   0.000000  -0.000000
    3  SI 1  S   -0.000000   0.000000   0.000000  -0.000000   0.000000
    4  SI 1  X    0.000000  -0.000000   3.254959   3.325699   1.197678
    5  SI 1  Y   -0.000000   0.000000  -0.933304   3.014140   1.839494
    6  SI 1  Z    0.000000  -0.000000   3.667628  -2.184491  -1.713271
    7  SI 1  X   -0.000000  -0.000000  -1.763388  -1.801712   0.275082
    8  SI 1  Y    0.000000  -0.000000   0.505622  -1.632924   0.422495
    9  SI 1  Z   -0.000000   0.000000  -1.986954   1.183458  -0.393504
   10  SI 1  X   -0.000000   0.000000  -1.700512  -1.737469  -0.303673
   11  SI 1  Y   -0.000000  -0.000000   0.487593  -1.574700  -0.466406
   12  SI 1  Z   -0.000000   0.000000  -1.916106   1.141260   0.434402
   13  SI 1 XX    0.513184  -0.171262  -0.000000   0.000000  -0.000000
   14  SI 1 YY   -0.108275   0.530061  -0.000000   0.000000  -0.000000
   15  SI 1 ZZ   -0.404909  -0.358800  -0.000000   0.000000  -0.000000
   16  SI 1 XY    0.000000  -0.000000  -0.612974   0.365096  -0.793231
   17  SI 1 XZ   -0.000000  -0.000000   0.155984  -0.503756   0.851671
   18  SI 1 YZ   -0.000000  -0.000000  -0.544005  -0.555827   0.554516
   19  SI 1 XX    0.913191  -0.304753  -0.000000   0.000000  -0.000000
   20  SI 1 YY   -0.192671   0.943223  -0.000000   0.000000  -0.000000
   21  SI 1 ZZ   -0.720519  -0.638470  -0.000000   0.000000  -0.000000
   22  SI 1 XY    0.000000  -0.000000   0.706174  -0.420607  -0.666049
   23  SI 1 XZ   -0.000000  -0.000000  -0.179701   0.580350   0.715120
   24  SI 1 YZ   -0.000000  -0.000000   0.626718   0.640338   0.465608
   25  SI 1 XXX  -0.000000  -0.000000  -0.735267  -0.751247  -0.110401
   26  SI 1 YYY  -0.000000  -0.000000   0.210825  -0.680868  -0.169564
   27  SI 1 ZZZ   0.000000   0.000000  -0.828486   0.493458   0.157929
   28  SI 1 XXY  -0.000000  -0.000000  -0.014006   0.045232   0.362329
   29  SI 1 XXZ   0.000000  -0.000000   0.055038  -0.032782  -0.337467
   30  SI 1 YYX  -0.000000  -0.000000   0.048846   0.049907   0.235909
   31  SI 1 YYZ   0.000000  -0.000000   0.055038  -0.032782  -0.337467
   32  SI 1 ZZX  -0.000000  -0.000000   0.048846   0.049907   0.235909
   33  SI 1 ZZY  -0.000000  -0.000000  -0.014006   0.045232   0.362329
   34  SI 1 XYZ  -0.000000   0.000000   0.000000  -0.000000   0.000000
   35  H  2  S    0.000000   0.000000   0.496906   0.344752   0.670200
   36  H  2  S    0.000000   0.000000   0.204214   0.141683  -0.426550
   37  H  2  S   -0.000000   0.000000  -0.876478  -0.608098  -0.915739
   38  H  2  X   -0.612773   0.204497  -0.291737  -0.162838   0.317390
   39  H  2  Y    0.129287  -0.632925  -0.446993  -0.174387   0.322984
   40  H  2  Z    0.483486   0.428429  -0.276440  -0.367097   0.292019
   41  H  2  X    0.045485  -0.015180   0.039691   0.025277  -0.020543
   42  H  2  Y   -0.009597   0.046981   0.048560   0.025937  -0.005413
   43  H  2  Z   -0.035889  -0.031802   0.038817   0.036946  -0.089162
   44  H  2 XX   -0.003803   0.001269   0.024589   0.013926  -0.151214
   45  H  2 YY    0.000802  -0.003928   0.036885   0.014841  -0.162284
   46  H  2 ZZ    0.003001   0.002659   0.023377   0.030103  -0.101003
   47  H  2 XY   -0.014012  -0.012416  -0.020006  -0.007685  -0.179192
   48  H  2 XZ   -0.003747   0.018343  -0.013979  -0.014495  -0.147599
   49  H  2 YZ    0.017759  -0.005927  -0.019465  -0.014903  -0.153306
   50  H  3  S    0.000000  -0.000000   0.111670  -0.707229  -2.404822
   51  H  3  S   -0.000000  -0.000000   0.045893  -0.290651   1.530553
   52  H  3  S   -0.000000  -0.000000  -0.196971   1.247460   3.285868
   53  H  3  X    0.612773  -0.204497   0.213337  -0.463668   1.111847
   54  H  3  Y   -0.129287   0.632925   0.058081  -0.475217   1.117441
   55  H  3  Z    0.483486   0.428429   0.043278   0.505971  -1.116341
   56  H  3  X   -0.045485   0.015180  -0.017362   0.059259  -0.146785
   57  H  3  Y    0.009597  -0.046981  -0.008492   0.059918  -0.131655
   58  H  3  Z   -0.035889  -0.031802   0.002702  -0.061675   0.134631
   59  H  3 XX   -0.003803   0.001269   0.017229  -0.038833   0.489118
   60  H  3 YY    0.000802  -0.003928   0.004933  -0.039748   0.500189
   61  H  3 ZZ    0.003001   0.002659  -0.003094  -0.042184   0.498011
   62  H  3 XY   -0.014012  -0.012416  -0.008220   0.024497   0.573076
   63  H  3 XZ    0.003747  -0.018343   0.004639  -0.025584  -0.571954
   64  H  3 YZ   -0.017759   0.005927  -0.000847  -0.025992  -0.577661
   65  H  4  S   -0.000000   0.000000  -0.651771   0.155390   1.192218
   66  H  4  S    0.000000   0.000000  -0.267859   0.063861  -0.758789
   67  H  4  S    0.000000   0.000000   1.149640  -0.274087  -1.629007
   68  H  4  X    0.612773  -0.204497  -0.420264   0.252243  -0.535598
   69  H  4  Y    0.129287  -0.632925   0.506326  -0.017230   0.562068
   70  H  4  Z   -0.483486  -0.428429  -0.404967   0.047985  -0.560968
   71  H  4  X   -0.045485   0.015180   0.054209  -0.021610   0.115000
   72  H  4  Y   -0.009597   0.046981  -0.059126   0.008185  -0.043405
   73  H  4  Z    0.035889   0.031802   0.053336  -0.009942   0.046380
   74  H  4 XX   -0.003803   0.001269  -0.035230   0.020441  -0.211585
   75  H  4 YY    0.000802  -0.003928  -0.042046   0.001829  -0.263973
   76  H  4 ZZ    0.003001   0.002659  -0.034019   0.004264  -0.261796
   77  H  4 XY    0.014012   0.012416  -0.024743   0.007615   0.276427
   78  H  4 XZ   -0.003747   0.018343   0.021162  -0.008702  -0.275304
   79  H  4 YZ   -0.017759   0.005927  -0.024203   0.000398   0.302313
   80  H  5  S   -0.000000  -0.000000   0.043195   0.207087   0.542404
   81  H  5  S    0.000000  -0.000000   0.017752   0.085107  -0.345214
   82  H  5  S    0.000000  -0.000000  -0.076190  -0.365275  -0.741123
   83  H  5  X   -0.612773   0.204497   0.084810  -0.048586   0.258860
   84  H  5  Y   -0.129287   0.632925   0.001252   0.283599  -0.232389
   85  H  5  Z   -0.483486  -0.428429   0.171805   0.090890  -0.263353
   86  H  5  X    0.045485  -0.015180  -0.002843   0.012371  -0.011242
   87  H  5  Y    0.009597  -0.046981  -0.002073  -0.025797   0.082837
   88  H  5  Z    0.035889   0.031802  -0.011816  -0.014788  -0.000912
   89  H  5 XX   -0.003803   0.001269  -0.006588   0.004466  -0.126319
   90  H  5 YY    0.000802  -0.003928   0.000228   0.023079  -0.073931
   91  H  5 ZZ    0.003001   0.002659   0.013735   0.007817  -0.135212
   92  H  5 XY    0.014012   0.012416  -0.003483   0.009197   0.117457
   93  H  5 XZ    0.003747  -0.018343   0.002544   0.002387   0.149051
   94  H  5 YZ    0.017759  -0.005927  -0.005585  -0.010691  -0.122042

                     31         32         33         34         35
                    2.4440     2.4440     2.4440     1.5847    -0.9713
                     A          A          A          A          A   
    1  SI 1  S   -0.000000   0.000000   0.000000  14.091400   0.000000
    2  SI 1  S    0.000000  -0.000000   0.000000  -0.633359   0.000000
    3  SI 1  S   -0.000000   0.000000  -0.000000  -0.396884   0.000000
    4  SI 1  X    2.921957  -1.913086   4.617636   0.000000  -0.000000
    5  SI 1  Y    3.547824   4.561479  -0.355179  -0.000000  -0.000000
    6  SI 1  Z   -3.520711   3.008872   3.474418   0.000000  -0.000000
    7  SI 1  X   -0.454617   0.297651  -0.718442  -0.000000   0.000000
    8  SI 1  Y   -0.551994  -0.709705   0.055261   0.000000   0.000000
    9  SI 1  Z    0.547776  -0.468140  -0.540573  -0.000000   0.000000
   10  SI 1  X   -1.277576   0.836465  -2.018984  -0.000000   0.000000
   11  SI 1  Y   -1.551226  -1.994429   0.155296   0.000000   0.000000
   12  SI 1  Z    1.539372  -1.315578  -1.519130  -0.000000   0.000000
   13  SI 1 XX    0.000000  -0.000000   0.000000  -4.602155   0.000000
   14  SI 1 YY   -0.000000  -0.000000   0.000000  -4.602155   0.000000
   15  SI 1 ZZ    0.000000  -0.000000  -0.000000  -4.602155   0.000000
   16  SI 1 XY   -0.155499   0.132893   0.153454   0.000000   0.000000
   17  SI 1 XZ    0.156696   0.201466  -0.015687   0.000000  -0.000000
   18  SI 1 YZ    0.129054  -0.084495   0.203947   0.000000   0.000000
   19  SI 1 XX    0.000000  -0.000000   0.000000  -2.861979   0.000000
   20  SI 1 YY   -0.000000  -0.000000   0.000000  -2.861979   0.000000
   21  SI 1 ZZ    0.000000  -0.000000   0.000000  -2.861979   0.000000
   22  SI 1 XY   -0.333592   0.285094   0.329206   0.000000   0.000000
   23  SI 1 XZ    0.336161   0.432206  -0.033654   0.000000  -0.000000
   24  SI 1 YZ    0.276859  -0.181267   0.437527   0.000000   0.000000
   25  SI 1 XXX  -0.108549   0.071070  -0.171543  -0.000000   0.000000
   26  SI 1 YYY  -0.131800  -0.169456   0.013195   0.000000   0.000000
   27  SI 1 ZZZ   0.130793  -0.111778  -0.129073  -0.000000   0.000000
   28  SI 1 XXY  -0.213822  -0.274914   0.021406   0.000000  -0.850528
   29  SI 1 XXZ   0.212188  -0.181340  -0.209398  -0.000000  -0.752508
   30  SI 1 YYX  -0.176102   0.115299  -0.278298  -0.000000   0.531195
   31  SI 1 YYZ   0.212188  -0.181340  -0.209398  -0.000000   0.752508
   32  SI 1 ZZX  -0.176102   0.115299  -0.278298  -0.000000  -0.531195
   33  SI 1 ZZY  -0.213822  -0.274914   0.021406   0.000000   0.850528
   34  SI 1 XYZ  -0.000000   0.000000   0.000000  -0.668259   0.000000
   35  H  2  S    0.131172   0.251630   0.344129  -0.899527   0.000000
   36  H  2  S    0.023616   0.045303   0.061957  -0.204801  -0.000000
   37  H  2  S   -1.167837  -2.240287  -3.063817   1.716595  -0.000000
   38  H  2  X    0.146917   0.746269   0.573729  -0.278651   0.542066
   39  H  2  Y    0.108255   0.346312   0.880918  -0.278651  -0.434084
   40  H  2  Z    0.544904   0.442222   0.644350  -0.278651  -0.107982
   41  H  2  X   -0.092539  -0.386421  -0.327468  -0.136786  -0.045234
   42  H  2  Y   -0.075148  -0.206521  -0.465641  -0.136786   0.036223
   43  H  2  Z   -0.271552  -0.249661  -0.359233  -0.136786   0.009011
   44  H  2 XX    0.299343   0.383648   0.708057   0.005237  -0.013930
   45  H  2 YY    0.315209   0.547777   0.581997   0.005237   0.011155
   46  H  2 ZZ    0.136023   0.508419   0.679077   0.005237   0.002775
   47  H  2 XY    0.113325  -0.192568  -0.236459   0.343133  -0.006669
   48  H  2 XZ   -0.183500  -0.257765  -0.075645   0.343133  -0.026809
   49  H  2 YZ   -0.157219   0.014117  -0.284465   0.343133   0.033478
   50  H  3  S   -0.444368   0.016034  -0.035051  -0.899527   0.000000
   51  H  3  S   -0.080003   0.002887  -0.006311  -0.204801  -0.000000
   52  H  3  S    3.956253  -0.142751   0.312065   1.716595  -0.000000
   53  H  3  X    0.928682   0.078156  -0.197757   0.278651   0.033145
   54  H  3  Y    0.890020  -0.321801   0.109432   0.278651   0.074837
   55  H  3  Z   -0.891695  -0.145847  -0.302119  -0.278651   0.107982
   56  H  3  X   -0.507343  -0.031921   0.081881   0.136786  -0.002766
   57  H  3  Y   -0.489952   0.147979  -0.056292   0.136786  -0.006245
   58  H  3  Z    0.490706   0.062368   0.142962  -0.136786  -0.009011
   59  H  3 XX   -0.837220   0.076032  -0.177253   0.005237   0.000852
   60  H  3 YY   -0.853086  -0.088096  -0.051193   0.005237   0.001923
   61  H  3 ZZ   -0.852398   0.103810   0.027879   0.005237  -0.002775
   62  H  3 XY    0.264781  -0.130569  -0.136675   0.343133   0.006669
   63  H  3 XZ   -0.265919  -0.187328   0.005691  -0.343133   0.004622
   64  H  3 YZ   -0.239638   0.084554  -0.203130  -0.343133   0.002047
   65  H  4  S    0.184436   0.154151  -0.375725  -0.899527  -0.000000
   66  H  4  S    0.033206   0.027753  -0.067645  -0.204801   0.000000
   67  H  4  S   -1.642053  -1.372421   3.345120   1.716595   0.000000
   68  H  4  X   -0.640869  -0.266596   0.652595   0.278651  -0.033145
   69  H  4  Y    0.241207   0.102995  -0.915903  -0.278651   0.434084
   70  H  4  Z   -0.242882  -0.570643   0.723216   0.278651   0.467229
   71  H  4  X    0.325460   0.151005  -0.369315   0.136786   0.002766
   72  H  4  Y   -0.145693  -0.077417   0.487750  -0.136786  -0.036223
   73  H  4  Z    0.146446   0.287765  -0.401080   0.136786  -0.038989
   74  H  4 XX    0.242676   0.313232  -0.762320   0.005237  -0.000852
   75  H  4 YY    0.406684   0.380368  -0.654267   0.005237  -0.011155
   76  H  4 ZZ    0.405996   0.188462  -0.733339   0.005237   0.012007
   77  H  4 XY    0.196378  -0.085784  -0.244773  -0.343133   0.028856
   78  H  4 XZ   -0.197517  -0.232113   0.113789   0.343133   0.026809
   79  H  4 YZ   -0.074165   0.120901  -0.292780  -0.343133  -0.002047
   80  H  5  S    0.128760  -0.421814   0.066647  -0.899527   0.000000
   81  H  5  S    0.023182  -0.075943   0.011999  -0.204801  -0.000000
   82  H  5  S   -1.146363   3.755458  -0.593368   1.716595  -0.000000
   83  H  5  X    0.140897  -0.934708  -0.118890  -0.278651  -0.542066
   84  H  5  Y   -0.540558   0.771108  -0.144417   0.278651  -0.074837
   85  H  5  Z   -0.103909   0.867018  -0.380985   0.278651  -0.467229
   86  H  5  X   -0.089344   0.505505   0.040035  -0.136786   0.045234
   87  H  5  Y    0.269111  -0.431917   0.078400   0.136786   0.006245
   88  H  5  Z    0.072707  -0.475057   0.184808   0.136786   0.038989
   89  H  5 XX    0.295201  -0.772913   0.231515   0.005237   0.013930
   90  H  5 YY    0.131193  -0.840049   0.123463   0.005237  -0.001923
   91  H  5 ZZ    0.310379  -0.800691   0.026383   0.005237  -0.012007
   92  H  5 XY    0.181727  -0.237353  -0.128361  -0.343133  -0.028856
   93  H  5 XZ   -0.115098  -0.302550   0.032453  -0.343133  -0.004622
   94  H  5 YZ   -0.156584   0.191338  -0.211444   0.343133  -0.033478

                     36         37         38         39         40
                   -0.9713    -0.9713    -0.9867    -0.9867    -0.9867
                     A          A          A          A          A   
    1  SI 1  S   -0.000000  -0.000000  -0.000000  -0.000000   0.000000
    2  SI 1  S   -0.000000  -0.000000   0.000000   0.000000  -0.000000
    3  SI 1  S   -0.000000  -0.000000  -0.000000  -0.000000   0.000000
    4  SI 1  X    0.000000  -0.000000  -2.026248  -2.407456   5.011058
    5  SI 1  Y    0.000000   0.000000   5.224561  -2.647556   0.840617
    6  SI 1  Z    0.000000  -0.000000   1.900134   4.712412   3.032307
    7  SI 1  X   -0.000000   0.000000   0.945692   1.123610  -2.338765
    8  SI 1  Y   -0.000000  -0.000000  -2.438412   1.235670  -0.392334
    9  SI 1  Z   -0.000000   0.000000  -0.886832  -2.199381  -1.415241
   10  SI 1  X   -0.000000   0.000000   1.137184   1.351128  -2.812339
   11  SI 1  Y   -0.000000  -0.000000  -2.932162   1.485878  -0.471777
   12  SI 1  Z   -0.000000   0.000000  -1.066405  -2.644731  -1.701811
   13  SI 1 XX   -0.000000  -0.000000   0.000000   0.000000  -0.000000
   14  SI 1 YY   -0.000000  -0.000000   0.000000   0.000000  -0.000000
   15  SI 1 ZZ   -0.000000  -0.000000   0.000000   0.000000  -0.000000
   16  SI 1 XY   -0.000000   0.000000  -0.051826  -0.128531  -0.082706
   17  SI 1 XZ    0.000000   0.000000  -0.142499   0.072212  -0.022928
   18  SI 1 YZ    0.000000  -0.000000   0.055266   0.065663  -0.136676
   19  SI 1 XX   -0.000000  -0.000000   0.000000   0.000000  -0.000000
   20  SI 1 YY   -0.000000  -0.000000   0.000000   0.000000  -0.000000
   21  SI 1 ZZ   -0.000000  -0.000000   0.000000   0.000000  -0.000000
   22  SI 1 XY    0.000000   0.000000  -0.330168  -0.818831  -0.526895
   23  SI 1 XZ    0.000000   0.000000  -0.907822   0.460041  -0.146066
   24  SI 1 YZ    0.000000  -0.000000   0.352082   0.418321  -0.870724
   25  SI 1 XXX  -0.000000   0.000000   0.134968   0.160360  -0.333785
   26  SI 1 YYY   0.000000  -0.000000  -0.348006   0.176353  -0.055993
   27  SI 1 ZZZ  -0.000000   0.000000  -0.126567  -0.313892  -0.201981
   28  SI 1 XXY   0.919172   0.059658  -0.928652   0.470596  -0.149417
   29  SI 1 XXZ  -0.646561  -0.766501  -0.337744  -0.837618  -0.538984
   30  SI 1 YYX   0.555801  -0.990329   0.360160   0.427919  -0.890702
   31  SI 1 YYZ   0.646561   0.766501  -0.337744  -0.837618  -0.538984
   32  SI 1 ZZX  -0.555801   0.990329   0.360160   0.427919  -0.890702
   33  SI 1 ZZY  -0.919172  -0.059658  -0.928652   0.470596  -0.149417
   34  SI 1 XYZ  -0.000000  -0.000000  -0.000000  -0.000000   0.000000
   35  H  2  S    0.000000  -0.000000  -1.126213   0.075678  -1.962412
   36  H  2  S   -0.000000  -0.000000   0.216090  -0.014521   0.376534
   37  H  2  S   -0.000000   0.000000   1.823491  -0.122533   3.177411
   38  H  2  X   -0.092183   0.239019   0.175416   0.218441  -0.467475
   39  H  2  Y   -0.406578   0.075687  -0.480871   0.240173  -0.089998
   40  H  2  Z    0.498762  -0.314706  -0.179970  -0.425995  -0.288373
   41  H  2  X    0.007692  -0.019945  -0.011457  -0.012123   0.023332
   42  H  2  Y    0.033928  -0.006316   0.025295  -0.013340   0.002193
   43  H  2  Z   -0.041620   0.026261   0.008445   0.023965   0.013302
   44  H  2 XX    0.002369  -0.006142  -0.139663   0.001072  -0.215444
   45  H  2 YY    0.010448  -0.001945  -0.115966   0.000287  -0.229074
   46  H  2 ZZ   -0.012817   0.008087  -0.126831   0.024341  -0.221911
   47  H  2 XY    0.030804  -0.019437   0.001881  -0.001003   0.003328
   48  H  2 XZ   -0.025111   0.004675   0.001279   0.000330   0.003725
   49  H  2 YZ   -0.005693   0.014762   0.002592   0.000286   0.002970
   50  H  3  S   -0.000000   0.000000   0.286759  -2.157558   0.622779
   51  H  3  S    0.000000  -0.000000  -0.055021   0.413978  -0.119495
   52  H  3  S    0.000000  -0.000000  -0.464302   3.493380  -1.008364
   53  H  3  X   -0.529452  -0.279366   0.181368   0.233200  -0.457978
   54  H  3  Y    0.030690   0.594072  -0.474920   0.254932  -0.080501
   55  H  3  Z   -0.498762   0.314706  -0.169953  -0.441827  -0.270046
   56  H  3  X    0.044181   0.023312  -0.010573  -0.009929   0.024743
   57  H  3  Y   -0.002561  -0.049574   0.026180  -0.011146   0.003605
   58  H  3  Z    0.041620  -0.026261   0.009933   0.021612   0.016026
   59  H  3 XX   -0.013606  -0.007179   0.040497  -0.247006   0.057192
   60  H  3 YY    0.000789   0.015266   0.016800  -0.246222   0.070822
   61  H  3 ZZ    0.012817  -0.008087   0.040085  -0.239473   0.083480
   62  H  3 XY   -0.030804   0.019437  -0.000911   0.003409  -0.001779
   63  H  3 XZ    0.001895   0.036690  -0.000379  -0.003783   0.001078
   64  H  3 YZ   -0.032699  -0.017254   0.000933  -0.003827   0.000323
   65  H  4  S    0.000000   0.000000  -1.181928   1.093976   1.591039
   66  H  4  S   -0.000000  -0.000000   0.226780  -0.209905  -0.305278
   67  H  4  S   -0.000000  -0.000000   1.913702  -1.771297  -2.576108
   68  H  4  X    0.529452   0.279366   0.191779   0.210149  -0.464842
   69  H  4  Y    0.406578  -0.075687  -0.481266   0.247392  -0.064807
   70  H  4  Z   -0.122874  -0.355053  -0.163607  -0.434287  -0.285741
   71  H  4  X   -0.044181  -0.023312  -0.009025  -0.013355   0.023723
   72  H  4  Y   -0.033928   0.006316   0.025236  -0.012267   0.005937
   73  H  4  Z    0.010254   0.029628   0.010877   0.022733   0.013693
   74  H  4 XX    0.013606   0.007179  -0.133000   0.137101   0.171574
   75  H  4 YY   -0.010448   0.001945  -0.122547   0.120580   0.190698
   76  H  4 ZZ   -0.003158  -0.009124  -0.145832   0.113831   0.178041
   77  H  4 XY   -0.007589  -0.021928  -0.002679   0.001308   0.002594
   78  H  4 XZ    0.025111  -0.004675   0.001389  -0.001682  -0.003295
   79  H  4 YZ    0.032699   0.017254  -0.001968   0.002597   0.002236
   80  H  5  S    0.000000   0.000000   2.021382   0.987904  -0.251406
   81  H  5  S   -0.000000   0.000000  -0.387849  -0.189552   0.048238
   82  H  5  S   -0.000000   0.000000  -3.272891  -1.599550   0.407060
   83  H  5  X    0.092183  -0.239019   0.197731   0.224908  -0.455345
   84  H  5  Y   -0.030690  -0.594072  -0.487217   0.232633  -0.074304
   85  H  5  Z    0.122874   0.355053  -0.186316  -0.433535  -0.272679
   86  H  5  X   -0.007692   0.019945  -0.008141  -0.011162   0.025135
   87  H  5  Y    0.002561   0.049574   0.024352  -0.014461   0.004526
   88  H  5  Z   -0.010254  -0.029628   0.007501   0.022845   0.015635
   89  H  5 XX   -0.002369   0.006142   0.232166   0.108834  -0.013322
   90  H  5 YY   -0.000789  -0.015266   0.221713   0.125355  -0.032446
   91  H  5 ZZ    0.003158   0.009124   0.232578   0.101301  -0.039609
   92  H  5 XY    0.007589   0.021928   0.003649   0.001098  -0.001046
   93  H  5 XZ   -0.001895  -0.036690   0.003047   0.002431  -0.000649
   94  H  5 YZ    0.005693  -0.014762  -0.003627  -0.001516  -0.000411

                     41         42         43         44         45
                    2.1593    -1.4261    -1.4261     1.5505     1.5505
                     A          A          A          A          A   
    1  SI 1  S   -0.343233  -0.000000   0.000000   0.000000   0.000000
    2  SI 1  S   -1.598734   0.000000   0.000000  -0.000000  -0.000000
    3  SI 1  S    3.261921  -0.000000  -0.000000   0.000000   0.000000
    4  SI 1  X   -0.000000   0.000000   0.000000   0.255862   1.108579
    5  SI 1  Y    0.000000  -0.000000  -0.000000   0.817795  -0.025379
    6  SI 1  Z    0.000000   0.000000   0.000000  -0.780288   0.336913
    7  SI 1  X    0.000000  -0.000000  -0.000000  -0.018902  -0.081898
    8  SI 1  Y   -0.000000   0.000000  -0.000000  -0.060416   0.001875
    9  SI 1  Z   -0.000000  -0.000000  -0.000000   0.057645  -0.024890
   10  SI 1  X    0.000000  -0.000000  -0.000000  -0.126538  -0.548252
   11  SI 1  Y   -0.000000   0.000000   0.000000  -0.404444   0.012551
   12  SI 1  Z   -0.000000  -0.000000  -0.000000   0.385894  -0.166622
   13  SI 1 XX   -0.470805   0.390649  -0.998975  -0.000000  -0.000000
   14  SI 1 YY   -0.470805   0.669814   0.837799  -0.000000  -0.000000
   15  SI 1 ZZ   -0.470805  -1.060462   0.161176  -0.000000  -0.000000
   16  SI 1 XY   -0.000000  -0.000000   0.000000  -0.194129   0.083821
   17  SI 1 XZ    0.000000   0.000000  -0.000000   0.203460  -0.006314
   18  SI 1 YZ    0.000000   0.000000  -0.000000   0.063656   0.275805
   19  SI 1 XX   -1.326500  -0.509353   1.302529  -0.000000   0.000000
   20  SI 1 YY   -1.326500  -0.873346  -1.092377  -0.000000  -0.000000
   21  SI 1 ZZ   -1.326500   1.382700  -0.210152  -0.000000  -0.000000
   22  SI 1 XY   -0.000000  -0.000000   0.000000   0.052707  -0.022758
   23  SI 1 XZ    0.000000   0.000000  -0.000000  -0.055241   0.001714
   24  SI 1 YZ    0.000000   0.000000  -0.000000  -0.017283  -0.074883
   25  SI 1 XXX   0.000000   0.000000  -0.000000  -0.045522  -0.197234
   26  SI 1 YYY  -0.000000   0.000000   0.000000  -0.145498   0.004515
   27  SI 1 ZZZ  -0.000000  -0.000000   0.000000   0.138825  -0.059942
   28  SI 1 XXY  -0.000000   0.000000   0.000000   0.048681  -0.001511
   29  SI 1 XXZ  -0.000000  -0.000000   0.000000  -0.046448   0.020056
   30  SI 1 YYX   0.000000   0.000000  -0.000000   0.015231   0.065991
   31  SI 1 YYZ  -0.000000  -0.000000   0.000000  -0.046448   0.020056
   32  SI 1 ZZX   0.000000   0.000000  -0.000000   0.015231   0.065991
[...]
   32  SI 1 ZZX   0.223954  -0.026526  -0.019614  -0.141361   0.185961
   33  SI 1 ZZY  -0.632263  -0.066323  -0.194080  -0.002443  -0.359518
   34  SI 1 XYZ  -0.000004   0.000001   0.000001   0.000000  -0.000000
   35  H  2  S    0.753833   0.298032  -0.306374   0.145543  -0.407973
   36  H  2  S   -0.761945   0.208942   0.271274   0.435464  -0.171931
   37  H  2  S   -0.850198  -0.283850   0.345800  -0.164430   0.878991
   38  H  2  X   -0.007896   0.126242   0.125691  -0.022857  -0.241034
   39  H  2  Y   -0.012097  -0.057328  -0.146548  -0.114373   0.072960
   40  H  2  Z    0.104012  -0.131259  -0.028394  -0.047824  -0.069037
   41  H  2  X    0.057453  -0.241332  -0.033688  -0.118140   0.421343
   42  H  2  Y    0.221702   0.009398  -0.042277   0.059091   0.105696
   43  H  2  Z    0.017939   0.153348  -0.047458   0.161043   0.178311
   44  H  2 XX   -0.035687  -0.182993   0.081771   0.058745  -0.044011
   45  H  2 YY   -0.028706   0.254175  -0.319731  -0.216394  -0.077600
   46  H  2 ZZ   -0.176226   0.067503   0.038644  -0.004636  -0.325046
   47  H  2 XY    0.162397   0.084362   0.262653  -0.190581  -0.075630
   48  H  2 XZ    0.075992   0.328565   0.104444  -0.081613   0.124261
   49  H  2 YZ   -0.102008  -0.036485   0.116035   0.301001   0.121913
   50  H  3  S   -0.459814  -0.041156   0.292687  -0.383340   0.853739
   51  H  3  S    0.484591  -0.441226  -0.104863  -0.272713  -0.538026
   52  H  3  S    0.354753   0.086780  -0.771484   0.181900  -2.105028
   53  H  3  X    0.062585  -0.057647  -0.324252  -0.125672  -0.308210
   54  H  3  Y    0.020942   0.039308  -0.101422   0.027080  -0.249579
   55  H  3  Z    0.306177  -0.040288   0.031629   0.207181   0.369722
   56  H  3  X   -0.051696   0.161823   0.042955   0.039557  -0.050371
   57  H  3  Y    0.069314  -0.029847  -0.044447  -0.039420  -0.019563
   58  H  3  Z   -0.042852   0.135449  -0.085262  -0.112797   0.089356
   59  H  3 XX   -0.396445  -0.135358  -0.067388  -0.245894   0.045696
   60  H  3 YY   -0.363039   0.215333   0.387926   0.213129   0.209913
   61  H  3 ZZ   -0.377763   0.004603  -0.177949   0.502828   0.072999
   62  H  3 XY    0.101233  -0.272529  -0.141270   0.204763  -0.246078
   63  H  3 XZ    0.167511   0.192254  -0.180930   0.132802   0.214502
   64  H  3 YZ    0.073790  -0.336848   0.146961   0.077003   0.258076
   65  H  4  S    0.874782  -0.128698  -0.432085   0.129440  -1.348169
   66  H  4  S    0.659435   0.189019   0.114331  -0.173677   0.805754
   67  H  4  S   -0.208009  -0.312503   1.576528  -0.146590   3.533332
   68  H  4  X    0.345262  -0.150150   0.181563  -0.155498   0.738503
   69  H  4  Y   -0.092612   0.110480  -0.525162   0.217522  -0.573766
   70  H  4  Z    0.349199   0.078285   0.173783  -0.064934   0.746528
   71  H  4  X    0.186808   0.037047   0.091385  -0.005738  -0.081519
   72  H  4  Y   -0.077595   0.033739   0.094374  -0.085645  -0.075596
   73  H  4  Z    0.093283   0.060421   0.153188   0.197489  -0.087733
   74  H  4 XX    0.214853  -0.088656  -0.365836  -0.436952  -0.231108
   75  H  4 YY    0.381056  -0.017968  -0.238337   0.244479  -0.281074
   76  H  4 ZZ    0.470717   0.074911   0.171162  -0.162546  -0.069883
   77  H  4 XY    0.039004   0.214561   0.266894   0.016835  -0.210796
   78  H  4 XZ    0.174516  -0.229740   0.055303   0.048480   0.150157
   79  H  4 YZ   -0.085898  -0.124306  -0.038150  -0.034526  -0.008270
   80  H  5  S   -1.168799  -0.128166   0.445766   0.108346   0.902405
   81  H  5  S   -0.382101   0.043272  -0.280745   0.010917  -0.095795
   82  H  5  S    0.703467   0.509563  -1.150844   0.129136  -2.307296
   83  H  5  X    0.318798   0.226101   0.164021  -0.006502   0.398108
   84  H  5  Y   -0.103583   0.166131  -0.039223   0.343469  -0.470555
   85  H  5  Z   -0.058005   0.158015  -0.269216   0.208702  -0.499729
   86  H  5  X    0.012827   0.076877   0.205516  -0.098518  -0.168771
   87  H  5  Y    0.053153  -0.033858  -0.139018  -0.256553   0.396518
   88  H  5  Z   -0.161383  -0.028114  -0.012856  -0.130301   0.393005
   89  H  5 XX    0.113471   0.103425   0.118600   0.207792   0.182459
   90  H  5 YY   -0.012344  -0.190452   0.101148  -0.148743   0.283760
   91  H  5 ZZ    0.210115  -0.104527   0.269990  -0.011811   0.233897
   92  H  5 XY    0.094807  -0.131095   0.150206  -0.026586  -0.179493
   93  H  5 XZ    0.063626   0.003234   0.102536  -0.005838  -0.069273
   94  H  5 YZ   -0.059287  -0.056374   0.050350  -0.122359  -0.069877

                     31         32         33         34
                    0.0000     0.0000     0.0000     0.0000
                     A          A          A          A   
    1  SI 1  S    0.000007   0.000002   0.000000   0.000000
    2  SI 1  S   -0.000001  -0.000001   0.000000   0.000000
    3  SI 1  S    0.000005  -0.000005   0.000000   0.000000
    4  SI 1  X    0.550772   0.507910   0.000000   0.000000
    5  SI 1  Y   -0.233009  -0.116082   0.000000   0.000000
    6  SI 1  Z    0.074384   1.025382   0.000000   0.000000
    7  SI 1  X   -0.119888  -0.553562   0.000000   0.000000
    8  SI 1  Y    0.149695  -0.026801   0.000000   0.000000
    9  SI 1  Z   -0.099210  -0.264609   0.000000   0.000000
   10  SI 1  X    0.004065  -0.187892   0.000000   0.000000
   11  SI 1  Y    0.011037   0.117290   0.000000   0.000000
   12  SI 1  Z    0.109277  -0.313053   0.000000   0.000000
   13  SI 1 XX   -0.100119  -0.115852   0.000000   0.000000
   14  SI 1 YY    0.121254   0.165083   0.000000   0.000000
   15  SI 1 ZZ   -0.021140  -0.049227   0.000000   0.000000
   16  SI 1 XY   -0.020520  -0.013506   0.000000   0.000000
   17  SI 1 XZ    0.007641  -0.052857   0.000000   0.000000
   18  SI 1 YZ    0.067067  -0.213101   0.000000   0.000000
   19  SI 1 XX    0.211412   0.115836   0.000000   0.000000
   20  SI 1 YY   -0.117711  -0.054368   0.000000   0.000000
   21  SI 1 ZZ   -0.093707  -0.061469   0.000000   0.000000
   22  SI 1 XY    0.194116   0.231687   0.000000   0.000000
   23  SI 1 XZ   -0.042856   0.185071   0.000000   0.000000
   24  SI 1 YZ    0.334785  -0.078624   0.000000   0.000000
   25  SI 1 XXX   0.060797  -0.488330   0.000000   0.000000
   26  SI 1 YYY   0.044739   0.022464   0.000000   0.000000
   27  SI 1 ZZZ  -0.158506  -0.298419   0.000000   0.000000
   28  SI 1 XXY  -0.498922  -0.029698  -0.039277  -0.323798
   29  SI 1 XXZ   0.376316   0.057713   0.001591  -0.200859
   30  SI 1 YYX  -0.067661   0.379191  -0.380403   0.032592
   31  SI 1 YYZ   0.386363   0.123593  -0.001591   0.200859
   32  SI 1 ZZX  -0.076845   0.336480   0.380403  -0.032592
   33  SI 1 ZZY  -0.477906  -0.007844   0.039277   0.323798
   34  SI 1 XYZ   0.000000   0.000001   0.000000   0.000000
   35  H  2  S    0.074608  -0.265208   0.000000   0.000000
   36  H  2  S   -0.189831  -0.280376   0.000000   0.000000
   37  H  2  S    0.084435   0.124075   0.000000   0.000000
   38  H  2  X   -0.120349   0.193320  -0.024502  -0.341108
   39  H  2  Y    0.031361   0.201320  -0.248356   0.151780
   40  H  2  Z   -0.121376   0.115718   0.272857   0.189329
   41  H  2  X    0.127026  -0.229113   0.037379   0.520392
   42  H  2  Y    0.031386  -0.276945   0.378889  -0.231554
   43  H  2  Z    0.266655  -0.186969  -0.416269  -0.288838
   44  H  2 XX   -0.069512   0.185723  -0.020015  -0.278652
   45  H  2 YY   -0.210447  -0.088280  -0.202882   0.123989
   46  H  2 ZZ   -0.082231  -0.060258   0.222897   0.154663
   47  H  2 XY    0.199509   0.065787  -0.026244  -0.018210
   48  H  2 XZ   -0.068345  -0.025884   0.023888  -0.014599
   49  H  2 YZ    0.030800   0.273131   0.002357   0.032809
   50  H  3  S    0.318184   0.056608   0.000000   0.000000
   51  H  3  S   -0.163085  -0.129032   0.000000   0.000000
   52  H  3  S   -0.776360  -0.030569   0.000000   0.000000
   53  H  3  X   -0.308103  -0.004869  -0.026571  -0.079929
   54  H  3  Y   -0.341042   0.046854  -0.246286  -0.109399
   55  H  3  Z    0.377008  -0.012371  -0.272857  -0.189329
   56  H  3  X    0.306112  -0.081350   0.040536   0.121940
   57  H  3  Y    0.316373  -0.143764   0.375732   0.166899
   58  H  3  Z   -0.209282   0.244581   0.416269   0.288838
   59  H  3 XX    0.096128  -0.165141   0.021706   0.065294
   60  H  3 YY    0.251693   0.019554   0.201191   0.089368
   61  H  3 ZZ    0.030880  -0.072895  -0.222897  -0.154663
   62  H  3 XY    0.080744   0.113746   0.026244   0.018210
   63  H  3 XZ    0.009496   0.018683   0.023689   0.010522
   64  H  3 YZ    0.149982   0.266334   0.002556   0.007688
   65  H  4  S   -0.532849  -0.083528   0.000000   0.000000
   66  H  4  S    0.490945   0.334041   0.000000   0.000000
   67  H  4  S    1.255450   0.021308   0.000000   0.000000
   68  H  4  X    0.467801   0.235543   0.026571   0.079929
   69  H  4  Y   -0.238045  -0.141654   0.248356  -0.151780
   70  H  4  Z    0.425678   0.249796   0.221785  -0.231709
   71  H  4  X   -0.303041  -0.167971  -0.040536  -0.121940
   72  H  4  Y    0.159224   0.314613  -0.378889   0.231554
   73  H  4  Z   -0.271949  -0.244913  -0.338353   0.353493
   74  H  4 XX    0.047642  -0.083271  -0.021706  -0.065294
   75  H  4 YY   -0.195640   0.164946   0.202882  -0.123989
   76  H  4 ZZ   -0.146738  -0.006687  -0.181176   0.189283
   77  H  4 XY    0.068574   0.085839  -0.021332   0.022287
   78  H  4 XZ   -0.127079   0.096302  -0.023888   0.014599
   79  H  4 YZ   -0.149223   0.162667  -0.002556  -0.007688
   80  H  5  S    0.140050   0.292137   0.000000   0.000000
   81  H  5  S   -0.138033   0.075373   0.000000   0.000000
   82  H  5  S   -0.563521  -0.114822   0.000000   0.000000
   83  H  5  X    0.128600   0.113346   0.024502   0.341108
   84  H  5  Y   -0.089975  -0.011190   0.246286   0.109399
   85  H  5  Z   -0.097162  -0.046461  -0.221785   0.231709
   86  H  5  X   -0.143831  -0.158974  -0.037379  -0.520392
   87  H  5  Y    0.086449   0.184956  -0.375732  -0.166899
   88  H  5  Z    0.097236   0.160231   0.338353  -0.353493
   89  H  5 XX   -0.010918   0.100147   0.020015   0.278652
   90  H  5 YY    0.296742   0.034112  -0.201191  -0.089368
   91  H  5 ZZ   -0.007600  -0.027953   0.181176  -0.189283
   92  H  5 XY    0.107695   0.089722   0.021332  -0.022287
   93  H  5 XZ   -0.204512   0.135886  -0.023689  -0.010522
   94  H  5 YZ   -0.133618   0.236046  -0.002357  -0.032809
 ...... END OF DENSITY MATRIX CALCULATION ...... 
 STEP CPU TIME =     0.04 TOTAL CPU TIME =        6.7 (    0.1 MIN)
 TOTAL WALL CLOCK TIME=       70.6 SECONDS, CPU UTILIZATION IS   9.55%

     --------------------------------------------------------
     GUGA  CI PROPERTIES...FOR THE WAVEFUNCTION OF STATE    2
               USING THE EXPECTATION VALUE DENSITY
     --------------------------------------------------------

          -----------------
          ENERGY COMPONENTS
          -----------------

         WAVEFUNCTION NORMALIZATION =       1.0000000000

                ONE ELECTRON ENERGY =     -21.1592263838
                TWO ELECTRON ENERGY =       8.4234791520
           NUCLEAR REPULSION ENERGY =       7.0352112604
                                      ------------------
                       TOTAL ENERGY =      -5.7005359714

 ELECTRON-ELECTRON POTENTIAL ENERGY =       8.4234791520
  NUCLEUS-ELECTRON POTENTIAL ENERGY =     -24.8654420715
   NUCLEUS-NUCLEUS POTENTIAL ENERGY =       7.0352112604
                                      ------------------
             TOTAL POTENTIAL ENERGY =      -9.4067516590
               TOTAL KINETIC ENERGY =       3.7062156876
                 VIRIAL RATIO (V/T) =       2.5381015170

          ---------------------------------------
          MULLIKEN AND LOWDIN POPULATION ANALYSES
          ---------------------------------------

               ----- POPULATIONS IN EACH AO -----
                             MULLIKEN      LOWDIN
              1  SI 1  S      1.38568     0.22151
              2  SI 1  S      0.01106     0.04345
              3  SI 1  S     -0.45285     0.14388
              4  SI 1  X      0.86764     0.21762
              5  SI 1  Y      0.97855     0.21740
              6  SI 1  Z      0.89668     0.21757
              7  SI 1  X      0.00657     0.10696
              8  SI 1  Y      0.00046     0.11941
              9  SI 1  Z      0.00497     0.11022
             10  SI 1  X      0.06388     0.21232
             11  SI 1  Y     -0.12560     0.16720
             12  SI 1  Z      0.01426     0.20050
             13  SI 1 XX      0.01753     0.10411
             14  SI 1 YY      0.01753     0.10411
             15  SI 1 ZZ      0.01753     0.10411
             16  SI 1 XY      0.04879     0.04016
             17  SI 1 XZ      0.04422     0.03555
             18  SI 1 YZ      0.05041     0.04179
             19  SI 1 XX      0.04339     0.07380
             20  SI 1 YY      0.04339     0.07380
             21  SI 1 ZZ      0.04339     0.07380
             22  SI 1 XY      0.11752     0.17447
             23  SI 1 XZ      0.09390     0.12854
             24  SI 1 YZ      0.12590     0.19076
             25  SI 1 XXX    -0.02360     0.10882
             26  SI 1 YYY    -0.03142     0.11686
             27  SI 1 ZZZ    -0.02565     0.11093
             28  SI 1 XXY     0.00934     0.09219
             29  SI 1 XXZ     0.00830     0.08446
             30  SI 1 YYX     0.00793     0.08172
             31  SI 1 YYZ     0.00830     0.08446
             32  SI 1 ZZX     0.00793     0.08172
             33  SI 1 ZZY     0.00934     0.09219
             34  SI 1 XYZ     0.00780     0.01215
             35  H  2  S      1.24232     0.35898
             36  H  2  S     -0.16892     0.12050
             37  H  2  S     -0.17967     0.23275
             38  H  2  X      0.00445     0.01094
             39  H  2  Y      0.00646     0.02301
             40  H  2  Z      0.00660     0.02403
             41  H  2  X      0.00089     0.00096
             42  H  2  Y      0.00102     0.00106
             43  H  2  Z      0.00109     0.00114
             44  H  2 XX      0.00010     0.07369
             45  H  2 YY     -0.00021     0.07204
             46  H  2 ZZ     -0.00013     0.07246
             47  H  2 XY      0.00014     0.00061
             48  H  2 XZ      0.00015     0.00064
             49  H  2 YZ      0.00015     0.00057
             50  H  3  S      1.17489     0.34097
             51  H  3  S     -0.17071     0.11791
             52  H  3  S     -0.16912     0.22099
             53  H  3  X      0.00620     0.02239
             54  H  3  Y      0.00464     0.01256
             55  H  3  Z      0.00594     0.02070
             56  H  3  X      0.00103     0.00108
             57  H  3  Y      0.00080     0.00082
             58  H  3  Z      0.00098     0.00102
             59  H  3 XX     -0.00012     0.06899
             60  H  3 YY     -0.00010     0.06909
             61  H  3 ZZ     -0.00013     0.06894
             62  H  3 XY      0.00014     0.00059
             63  H  3 XZ      0.00015     0.00061
             64  H  3 YZ      0.00014     0.00058
             65  H  4  S      1.20743     0.34966
             66  H  4  S     -0.16984     0.11916
             67  H  4  S     -0.17421     0.22667
             68  H  4  X      0.00652     0.02400
             69  H  4  Y      0.00612     0.02128
             70  H  4  Z      0.00449     0.01149
             71  H  4  X      0.00108     0.00113
             72  H  4  Y      0.00097     0.00099
             73  H  4  Z      0.00085     0.00091
             74  H  4 XX     -0.00012     0.07068
             75  H  4 YY     -0.00021     0.07022
             76  H  4 ZZ      0.00004     0.07151
             77  H  4 XY      0.00015     0.00058
             78  H  4 XZ      0.00015     0.00063
             79  H  4 YZ      0.00014     0.00059
             80  H  5  S      1.40013     0.40110
             81  H  5  S     -0.16473     0.12658
             82  H  5  S     -0.20436     0.26028
             83  H  5  X      0.00600     0.01873
             84  H  5  Y      0.00685     0.02368
             85  H  5  Z      0.00638     0.02100
             86  H  5  X      0.00114     0.00125
             87  H  5  Y      0.00116     0.00123
             88  H  5  Z      0.00116     0.00126
             89  H  5 XX      0.00010     0.08193
             90  H  5 YY     -0.00010     0.08084
             91  H  5 ZZ      0.00003     0.08156
             92  H  5 XY      0.00015     0.00062
             93  H  5 XZ      0.00015     0.00066
             94  H  5 YZ      0.00015     0.00060

          ----- MULLIKEN ATOMIC OVERLAP POPULATIONS -----
          (OFF-DIAGONAL ELEMENTS NEED TO BE MULTIPLIED BY 2)

             1           2           3           4           5

    1    4.3709055
    2   -0.0581933   1.2392327
    3   -0.2464796  -0.1262496   1.4491441
    4   -0.1556206  -0.1737805  -0.1234657   1.3478534
    5    0.3824570   0.0334395  -0.0982190  -0.0114345   0.7479572

          TOTAL MULLIKEN AND LOWDIN ATOMIC POPULATIONS
       ATOM         MULL.POP.    CHARGE          LOW.POP.     CHARGE
    1 SI            4.293069   -0.293069         3.988513    0.011487
    2 H             0.914449    0.085551         0.993384    0.006616
    3 H             0.854730    0.145270         0.947262    0.052738
    4 H             0.883552    0.116448         0.969522    0.030478
    5 H             1.054200   -0.054200         1.101319   -0.101319

          ---------------------
          ELECTROSTATIC MOMENTS
          ---------------------

 POINT   1           X           Y           Z (BOHR)    CHARGE
                 0.000000    0.000000    0.000000       -0.00 (A.U.)
         DX          DY          DZ         /D/  (DEBYE)
    -2.088479    1.005666    1.528247    2.776445
 ...... END OF PROPERTY EVALUATION ......
 STEP CPU TIME =     0.03 TOTAL CPU TIME =        6.8 (    0.1 MIN)
 TOTAL WALL CLOCK TIME=       70.9 SECONDS, CPU UTILIZATION IS   9.54%
              1783210  WORDS OF DYNAMIC MEMORY USED
 EXECUTION OF GAMESS TERMINATED NORMALLY Thu May 28 22:10:57 2020
 DDI: 263640 bytes (0.3 MB / 0 MWords) used by master data server.

 ----------------------------------------
 CPU timing information for all processes
 ========================================
 0: 3.268 + 3.840 = 7.108
 ----------------------------------------
 ddikick.x: exited gracefully.
----- accounting info -----
Files used on the master node gwang18-p3 were:
-rw-rw-r-- 1 gwang18 gwang18    200643 5月  28 22:10 /home/gwang18/research/projects/si_gap/sih4/cis/smaller-bas/30orb/ci.dat
-rw-rw-r-- 1 gwang18 gwang18    147175 5月  28 22:09 /home/gwang18/research/projects/si_gap/sih4/cis/smaller-bas/30orb/ci.F05
-rw-rw-r-- 1 gwang18 gwang18 112329984 5月  28 22:10 /home/gwang18/research/projects/si_gap/sih4/cis/smaller-bas/30orb/ci.F08
-rw-rw-r-- 1 gwang18 gwang18    184784 5月  28 22:10 /home/gwang18/research/projects/si_gap/sih4/cis/smaller-bas/30orb/ci.F09
-rw-rw-r-- 1 gwang18 gwang18   3173840 5月  28 22:10 /home/gwang18/research/projects/si_gap/sih4/cis/smaller-bas/30orb/ci.F10
-rw-rw-r-- 1 gwang18 gwang18    293184 5月  28 22:10 /home/gwang18/research/projects/si_gap/sih4/cis/smaller-bas/30orb/ci.F11
-rw-rw-r-- 1 gwang18 gwang18      2136 5月  28 22:10 /home/gwang18/research/projects/si_gap/sih4/cis/smaller-bas/30orb/ci.F12
-rw-rw-r-- 1 gwang18 gwang18   1600032 5月  28 22:10 /home/gwang18/research/projects/si_gap/sih4/cis/smaller-bas/30orb/ci.F14
-rw-rw-r-- 1 gwang18 gwang18    161192 5月  28 22:10 /home/gwang18/research/projects/si_gap/sih4/cis/smaller-bas/30orb/ci.F15
-rw-rw-r-- 1 gwang18 gwang18    400232 5月  28 22:10 /home/gwang18/research/projects/si_gap/sih4/cis/smaller-bas/30orb/ci.F16
-rw-rw-r-- 1 gwang18 gwang18    147175 5月  28 22:09 /home/gwang18/research/projects/si_gap/sih4/cis/smaller-bas/30orb/ci.inp
-rw-rw-r-- 1 gwang18 gwang18    245584 5月  28 22:11 /home/gwang18/research/projects/si_gap/sih4/cis/smaller-bas/30orb/ci.out
2020年 05月 28日 星期四 22:11:14 EDT
0.0u 0.0s 1:30.17 0.0% 0+0k 9712+304io 56pf+0w
