  Input file(s): qmc.qmc.in-wfj.xml 

=====================================================
                    QMCPACK 3.9.9

       (c) Copyright 2003-  QMCPACK developers

                    Please cite:
 J. Kim et al. J. Phys. Cond. Mat. 30 195901 (2018)
      https://doi.org/10.1088/1361-648X/aab9c3

  Git branch: develop
  Last git commit: 51afccc38c709a720e0a3b2699c25cdc16ac35ad
  Last git commit date: Thu Jun 11 17:49:55 2020 -0400
  Last git commit subject: Merge pull request #2531 from mmorale3/add_afqmc_hip
=====================================================
  Global options 

  Total number of MPI ranks = 2
  Number of MPI groups      = 1
  MPI group ID              = 0
  Number of ranks in group  = 2
  MPI ranks per node        = 2
  OMP 1st level threads     = 21
  OMP nested threading disabled or only 1 thread on the 2nd level

  Precision used in this calculation, see definitions in the manual:
  Base precision      = double
  Full precision      = double

  Structure-of-arrays (SoA) optimization enabled

  Input XML = qmc.qmc.in-wfj.xml

  Project = qmc
  date    = 2020-06-11 21:45:22 EDT
  host    = f08n10

 Random Number
 -------------
  Offset for the random number seeds based on time: 562

  Range of prime numbers to use as seeds over processors and threads = 4093-4457


 Particle Set 
 ------------
  Name: ion0
  All the species have the same mass 1
  Particle set size: 5

 Particle Set 
 ------------
  Name: e
  All the species have the same mass 1
  Particle set size: 8

 Wavefunction setup: 
 ------------------- 
  Name: psi0
  LCAO: SoaAtomicBasisSet<MultiQuintic,1>
Reading BasisSet from HDF5 file:qmc.h5
<input node="atomicBasisSet" name="gaussian" expandYlm="pyscf" angular="spherical" elementType="Si" normalized="no" type="Numerical" expM="0" />
  AO BasisSet for Si
   Spherical Harmonics contain (-1)^m factor
   Angular momentum m expanded as -l, ... ,l, with the exception of L=1 (1,-1,0)
   Grid is created by the input paremters in h5
    Using log grid ri = 1e-06 rf = 100 npts = 1001
   R(n,l,m,s) 0 0 0 0
   R(n,l,m,s) 1 0 0 0
   R(n,l,m,s) 2 0 0 0
   R(n,l,m,s) 3 1 0 0
   R(n,l,m,s) 4 1 0 0
   R(n,l,m,s) 5 1 0 0
   R(n,l,m,s) 6 2 0 0
   R(n,l,m,s) 7 2 0 0
Expanding Ylm as L=1 as (1,-1,0) and L>1 as -l,-l+1,...,l-1,l
   Adding 1 spherical orbitals
   Adding 1 spherical orbitals
   Adding 1 spherical orbitals
   Adding 3 spherical orbitals
   Adding 3 spherical orbitals
   Adding 3 spherical orbitals
   Adding 5 spherical orbitals
   Adding 5 spherical orbitals
  Setting cutoff radius 2.38347e+07

   Maximum Angular Momentum  = 2
   Number of Radial functors = 8
   Basis size                = 22

<input node="atomicBasisSet" name="gaussian" expandYlm="pyscf" angular="spherical" elementType="H" normalized="no" type="Numerical" expM="0" />
  AO BasisSet for H
   Spherical Harmonics contain (-1)^m factor
   Angular momentum m expanded as -l, ... ,l, with the exception of L=1 (1,-1,0)
   Grid is created by the input paremters in h5
    Using log grid ri = 1e-06 rf = 100 npts = 1001
   R(n,l,m,s) 0 0 0 0
   R(n,l,m,s) 1 0 0 0
   R(n,l,m,s) 2 0 0 0
   R(n,l,m,s) 3 1 0 0
   R(n,l,m,s) 4 1 0 0
Expanding Ylm as L=1 as (1,-1,0) and L>1 as -l,-l+1,...,l-1,l
   Adding 1 spherical orbitals
   Adding 1 spherical orbitals
   Adding 1 spherical orbitals
   Adding 3 spherical orbitals
   Adding 3 spherical orbitals
  Setting cutoff radius 98799.8

   Maximum Angular Momentum  = 1
   Number of Radial functors = 5
   Basis size                = 9

  Created SPOSet builder named 'LCAOBSet' of type molecularorbital
Reuse SPOSetBuilder "LCAOBSet" type MolecularOrbital
  Building SPOSet '' with '' basis set.
Reuse SPOSetBuilder "LCAOBSet" type MolecularOrbital
  Building SPOSet '' with '' basis set.
  Creating a determinant updet group=0 sposet=updet
  Reusing a SPO set updet
  Setting delay_rank by default!
  Using rank-1 Sherman-Morrison Fahy update
  Using DiracDeterminant with DelayedUpdate engine

  Creating a determinant downdet group=1 sposet=downdet
  Reusing a SPO set downdet
  Setting delay_rank by default!
  Using rank-1 Sherman-Morrison Fahy update
  Using DiracDeterminant with DelayedUpdate engine

  Added a fermionic WaveFunctionComponent SlaterDet

   Jastrow
   -------
    Name: J2   Type: Two-Body   Function: Bspline

    Radial function for species: u - u
     Number of parameters: 10
     Cusp: -0.25
     Cutoff radius: 10

     Name                        Value Type Recompute Use Index
     ---- ---------------------------- ---- --------- --- -----
     uu_0                 0.000000e+00    1         1  ON     0
     uu_1                 0.000000e+00    1         1  ON     1
     uu_2                 0.000000e+00    1         1  ON     2
     uu_3                 0.000000e+00    1         1  ON     3
     uu_4                 0.000000e+00    1         1  ON     4
     uu_5                 0.000000e+00    1         1  ON     5
     uu_6                 0.000000e+00    1         1  ON     6
     uu_7                 0.000000e+00    1         1  ON     7
     uu_8                 0.000000e+00    1         1  ON     8
     uu_9                 0.000000e+00    1         1  ON     9

    Radial function for species: u - d
     Number of parameters: 10
     Cusp: -0.5
     Cutoff radius: 10

     Name                        Value Type Recompute Use Index
     ---- ---------------------------- ---- --------- --- -----
     ud_0                 0.000000e+00    1         1  ON     0
     ud_1                 0.000000e+00    1         1  ON     1
     ud_2                 0.000000e+00    1         1  ON     2
     ud_3                 0.000000e+00    1         1  ON     3
     ud_4                 0.000000e+00    1         1  ON     4
     ud_5                 0.000000e+00    1         1  ON     5
     ud_6                 0.000000e+00    1         1  ON     6
     ud_7                 0.000000e+00    1         1  ON     7
     ud_8                 0.000000e+00    1         1  ON     8
     ud_9                 0.000000e+00    1         1  ON     9


   Jastrow
   -------
    Name: J1   Type: One-Body   Function: Bspline

    Radial function for element: Si
     Number of parameters: 10
     Cusp: 0
     Cutoff radius: 10

      Name                        Value Type Recompute Use Index
     ----- ---------------------------- ---- --------- --- -----
     eSi_0                 0.000000e+00    1         1  ON     0
     eSi_1                 0.000000e+00    1         1  ON     1
     eSi_2                 0.000000e+00    1         1  ON     2
     eSi_3                 0.000000e+00    1         1  ON     3
     eSi_4                 0.000000e+00    1         1  ON     4
     eSi_5                 0.000000e+00    1         1  ON     5
     eSi_6                 0.000000e+00    1         1  ON     6
     eSi_7                 0.000000e+00    1         1  ON     7
     eSi_8                 0.000000e+00    1         1  ON     8
     eSi_9                 0.000000e+00    1         1  ON     9

    Radial function for element: H
     Number of parameters: 10
     Cusp: 0
     Cutoff radius: 10

     Name                        Value Type Recompute Use Index
     ---- ---------------------------- ---- --------- --- -----
     eH_0                 0.000000e+00    1         1  ON     0
     eH_1                 0.000000e+00    1         1  ON     1
     eH_2                 0.000000e+00    1         1  ON     2
     eH_3                 0.000000e+00    1         1  ON     3
     eH_4                 0.000000e+00    1         1  ON     4
     eH_5                 0.000000e+00    1         1  ON     5
     eH_6                 0.000000e+00    1         1  ON     6
     eH_7                 0.000000e+00    1         1  ON     7
     eH_8                 0.000000e+00    1         1  ON     8
     eH_9                 0.000000e+00    1         1  ON     9


   Jastrow
   -------
    Name: J3   Type: eeI   Function: polynomial

     Ion: Si   electron-electron: u - u
      Number of parameters for e-e: 3, for e-I: 3
      Cutoff radius: 10

Expected 26 parameters, but found 0 in PolynomialFunctor3D.
         Name                        Value Type Recompute Use Index
      ------- ---------------------------- ---- --------- --- -----
       uuSi_0                 0.000000e+00    1         1  ON     0
       uuSi_1                 0.000000e+00    1         1  ON     1
       uuSi_2                 0.000000e+00    1         1  ON     2
       uuSi_3                 0.000000e+00    1         1  ON     3
       uuSi_4                 0.000000e+00    1         1  ON     4
       uuSi_5                 0.000000e+00    1         1  ON     5
       uuSi_6                 0.000000e+00    1         1  ON     6
       uuSi_7                 0.000000e+00    1         1  ON     7
       uuSi_8                 0.000000e+00    1         1  ON     8
       uuSi_9                 0.000000e+00    1         1  ON     9
      uuSi_10                 0.000000e+00    1         1  ON    10
      uuSi_11                 0.000000e+00    1         1  ON    11
      uuSi_12                 0.000000e+00    1         1  ON    12
      uuSi_13                 0.000000e+00    1         1  ON    13
      uuSi_14                 0.000000e+00    1         1  ON    14
      uuSi_15                 0.000000e+00    1         1  ON    15
      uuSi_16                 0.000000e+00    1         1  ON    16
      uuSi_17                 0.000000e+00    1         1  ON    17
      uuSi_18                 0.000000e+00    1         1  ON    18
      uuSi_19                 0.000000e+00    1         1  ON    19
      uuSi_20                 0.000000e+00    1         1  ON    20
      uuSi_21                 0.000000e+00    1         1  ON    21
      uuSi_22                 0.000000e+00    1         1  ON    22
      uuSi_23                 0.000000e+00    1         1  ON    23
      uuSi_24                 0.000000e+00    1         1  ON    24
      uuSi_25                 0.000000e+00    1         1  ON    25

     Ion: Si   electron-electron: u - d
      Number of parameters for e-e: 3, for e-I: 3
      Cutoff radius: 10

Expected 26 parameters, but found 0 in PolynomialFunctor3D.
         Name                        Value Type Recompute Use Index
      ------- ---------------------------- ---- --------- --- -----
       udSi_0                 0.000000e+00    1         1  ON     0
       udSi_1                 0.000000e+00    1         1  ON     1
       udSi_2                 0.000000e+00    1         1  ON     2
       udSi_3                 0.000000e+00    1         1  ON     3
       udSi_4                 0.000000e+00    1         1  ON     4
       udSi_5                 0.000000e+00    1         1  ON     5
       udSi_6                 0.000000e+00    1         1  ON     6
       udSi_7                 0.000000e+00    1         1  ON     7
       udSi_8                 0.000000e+00    1         1  ON     8
       udSi_9                 0.000000e+00    1         1  ON     9
      udSi_10                 0.000000e+00    1         1  ON    10
      udSi_11                 0.000000e+00    1         1  ON    11
      udSi_12                 0.000000e+00    1         1  ON    12
      udSi_13                 0.000000e+00    1         1  ON    13
      udSi_14                 0.000000e+00    1         1  ON    14
      udSi_15                 0.000000e+00    1         1  ON    15
      udSi_16                 0.000000e+00    1         1  ON    16
      udSi_17                 0.000000e+00    1         1  ON    17
      udSi_18                 0.000000e+00    1         1  ON    18
      udSi_19                 0.000000e+00    1         1  ON    19
      udSi_20                 0.000000e+00    1         1  ON    20
      udSi_21                 0.000000e+00    1         1  ON    21
      udSi_22                 0.000000e+00    1         1  ON    22
      udSi_23                 0.000000e+00    1         1  ON    23
      udSi_24                 0.000000e+00    1         1  ON    24
      udSi_25                 0.000000e+00    1         1  ON    25

     Ion: H   electron-electron: u - u
      Number of parameters for e-e: 3, for e-I: 3
      Cutoff radius: 10

Expected 26 parameters, but found 0 in PolynomialFunctor3D.
        Name                        Value Type Recompute Use Index
      ------ ---------------------------- ---- --------- --- -----
       uuH_0                 0.000000e+00    1         1  ON     0
       uuH_1                 0.000000e+00    1         1  ON     1
       uuH_2                 0.000000e+00    1         1  ON     2
       uuH_3                 0.000000e+00    1         1  ON     3
       uuH_4                 0.000000e+00    1         1  ON     4
       uuH_5                 0.000000e+00    1         1  ON     5
       uuH_6                 0.000000e+00    1         1  ON     6
       uuH_7                 0.000000e+00    1         1  ON     7
       uuH_8                 0.000000e+00    1         1  ON     8
       uuH_9                 0.000000e+00    1         1  ON     9
      uuH_10                 0.000000e+00    1         1  ON    10
      uuH_11                 0.000000e+00    1         1  ON    11
      uuH_12                 0.000000e+00    1         1  ON    12
      uuH_13                 0.000000e+00    1         1  ON    13
      uuH_14                 0.000000e+00    1         1  ON    14
      uuH_15                 0.000000e+00    1         1  ON    15
      uuH_16                 0.000000e+00    1         1  ON    16
      uuH_17                 0.000000e+00    1         1  ON    17
      uuH_18                 0.000000e+00    1         1  ON    18
      uuH_19                 0.000000e+00    1         1  ON    19
      uuH_20                 0.000000e+00    1         1  ON    20
      uuH_21                 0.000000e+00    1         1  ON    21
      uuH_22                 0.000000e+00    1         1  ON    22
      uuH_23                 0.000000e+00    1         1  ON    23
      uuH_24                 0.000000e+00    1         1  ON    24
      uuH_25                 0.000000e+00    1         1  ON    25

     Ion: H   electron-electron: u - d
      Number of parameters for e-e: 3, for e-I: 3
      Cutoff radius: 10

Expected 26 parameters, but found 0 in PolynomialFunctor3D.
        Name                        Value Type Recompute Use Index
      ------ ---------------------------- ---- --------- --- -----
       udH_0                 0.000000e+00    1         1  ON     0
       udH_1                 0.000000e+00    1         1  ON     1
       udH_2                 0.000000e+00    1         1  ON     2
       udH_3                 0.000000e+00    1         1  ON     3
       udH_4                 0.000000e+00    1         1  ON     4
       udH_5                 0.000000e+00    1         1  ON     5
       udH_6                 0.000000e+00    1         1  ON     6
       udH_7                 0.000000e+00    1         1  ON     7
       udH_8                 0.000000e+00    1         1  ON     8
       udH_9                 0.000000e+00    1         1  ON     9
      udH_10                 0.000000e+00    1         1  ON    10
      udH_11                 0.000000e+00    1         1  ON    11
      udH_12                 0.000000e+00    1         1  ON    12
      udH_13                 0.000000e+00    1         1  ON    13
      udH_14                 0.000000e+00    1         1  ON    14
      udH_15                 0.000000e+00    1         1  ON    15
      udH_16                 0.000000e+00    1         1  ON    16
      udH_17                 0.000000e+00    1         1  ON    17
      udH_18                 0.000000e+00    1         1  ON    18
      udH_19                 0.000000e+00    1         1  ON    19
      udH_20                 0.000000e+00    1         1  ON    20
      udH_21                 0.000000e+00    1         1  ON    21
      udH_22                 0.000000e+00    1         1  ON    22
      udH_23                 0.000000e+00    1         1  ON    23
      udH_24                 0.000000e+00    1         1  ON    24
      udH_25                 0.000000e+00    1         1  ON    25

  QMCHamiltonian::addOperator Kinetic to H, physical Hamiltonian 
  QMCHamiltonian::addOperator ElecElec to H, physical Hamiltonian 
QMCHamiltonian::addOperatorType added type coulomb named ElecElec
  QMCHamiltonian::addOperator IonIon to H, physical Hamiltonian 
QMCHamiltonian::addOperatorType added type coulomb named IonIon

  ECPotential builder for pseudopotential 

  Adding pseudopotential for H
   Linear grid  ri=0 rf=10 npts = 10001
    ECPComponentBuilder::buildSemiLocalAndLocal 
    Assuming Hartree unit
   Number of angular momentum channels 2
   Maximum angular momentum channel 1
   Creating a Linear Grid Rmax=1e-10
  Using global grid with delta = 0.001
   Making L=1 a local potential with a radial cutoff of 9.999
    Non-local pseudopotential parameters
    Maximum angular mementum = 0
    Number of non-local channels = 1
       l(0)=0
    Cutoff radius = 0.001
    Spherical grids and weights: 
                        1                 0                 0       0.08333333333
                       -1   1.224646799e-16                 0       0.08333333333
             0.4472135955       0.894427191                 0       0.08333333333
            -0.4472135955      0.7236067977      0.5257311121       0.08333333333
             0.4472135955      0.2763932023      0.8506508084       0.08333333333
            -0.4472135955     -0.2763932023      0.8506508084       0.08333333333
             0.4472135955     -0.7236067977      0.5257311121       0.08333333333
            -0.4472135955      -0.894427191   1.095357397e-16       0.08333333333
             0.4472135955     -0.7236067977     -0.5257311121       0.08333333333
            -0.4472135955     -0.2763932023     -0.8506508084       0.08333333333
             0.4472135955      0.2763932023     -0.8506508084       0.08333333333
            -0.4472135955      0.7236067977     -0.5257311121       0.08333333333
    Maximum cutoff radius 0.001

  Adding pseudopotential for Si
   Linear grid  ri=0 rf=10 npts = 10001
    ECPComponentBuilder::buildSemiLocalAndLocal 
    Assuming Hartree unit
   Number of angular momentum channels 3
   Maximum angular momentum channel 2
   Creating a Linear Grid Rmax=2.69
  Using global grid with delta = 0.001
   Making L=2 a local potential with a radial cutoff of 9.999
    Non-local pseudopotential parameters
    Maximum angular mementum = 1
    Number of non-local channels = 2
       l(0)=0
       l(1)=1
    Cutoff radius = 2.69
    Spherical grids and weights: 
                        1                 0                 0       0.08333333333
                       -1   1.224646799e-16                 0       0.08333333333
             0.4472135955       0.894427191                 0       0.08333333333
            -0.4472135955      0.7236067977      0.5257311121       0.08333333333
             0.4472135955      0.2763932023      0.8506508084       0.08333333333
            -0.4472135955     -0.2763932023      0.8506508084       0.08333333333
             0.4472135955     -0.7236067977      0.5257311121       0.08333333333
            -0.4472135955      -0.894427191   1.095357397e-16       0.08333333333
             0.4472135955     -0.7236067977     -0.5257311121       0.08333333333
            -0.4472135955     -0.2763932023     -0.8506508084       0.08333333333
             0.4472135955      0.2763932023     -0.8506508084       0.08333333333
            -0.4472135955      0.7236067977     -0.5257311121       0.08333333333
    Maximum cutoff radius 2.69
  QMCHamiltonian::addOperator LocalECP to H, physical Hamiltonian 

  Using NonLocalECP potential 
    Maximum grid on a sphere for NonLocalECPotential: 12
  QMCHamiltonian::addOperator NonLocalECP to H, physical Hamiltonian 
QMCHamiltonian::addOperatorType added type pseudo named PseudoPot

  QMCHamiltonian::add2WalkerProperty added
    5 to P::PropertyList 
    0 to P::Collectables 
    starting Index of the observables in P::PropertyList = 9
ParticleSetPool::randomize 1 ParticleSet.
<init source="ion0" target="e">
</init>
  Initialization Execution time = 0.187 secs
=========================================================
 Summary of QMC systems 
=========================================================
ParticleSetPool has: 

  ParticleSet 'e' contains 8 particles :  u(4) d(4)

    u  4.6758126145e-01 -3.1986627760e-01 -9.6454826022e-01
    u -8.5808002899e-01 -3.1225748635e-01  6.4613771286e-01
    u  2.2716379375e+00  2.4857006064e+00  1.3681476506e+00
    u -7.7330113684e-01  2.2991624339e+00 -1.8882536223e+00
    d  1.0911113813e+00 -2.4618420267e-01 -1.3011915138e-02
    d -8.7509013793e-01  6.4364558628e-01 -2.6690377978e-01
    d -1.3645088466e+00 -7.5976245489e-01  9.3779031987e-01
    d  1.4429463138e+00 -1.4021741111e+00 -2.6993511455e+00

  Distance table for dissimilar particles (A-B):
    source: ion0  target: e
    Using structure-of-arrays (SoA) data layout
    Distance computations use open boundary conditions in 3D.

  Distance table for similar particles (A-A):
    source/target: e
    Using structure-of-arrays (SoA) data layout
    Distance computations use open boundary conditions in 3D.


  ParticleSet 'ion0' contains 5 particles :  Si(1) H(4)

    Si  0.0000000000e+00  0.0000000000e+00  0.0000000000e+00
    H  1.6145820008e+00  1.6145820008e+00  1.6145820008e+00
    H -1.6145820008e+00 -1.6145820008e+00  1.6145820008e+00
    H -1.6145820008e+00  1.6145820008e+00 -1.6145820008e+00
    H  1.6145820008e+00 -1.6145820008e+00 -1.6145820008e+00

  Distance table for similar particles (A-A):
    source/target: ion0
    Using structure-of-arrays (SoA) data layout
    Distance computations use open boundary conditions in 3D.


  Hamiltonian h0
  Kinetic         Kinetic energy
  ElecElec        CoulombAB source=e

  IonIon          CoulombAA source/target ion0

  LocalECP        LocalECPotential: ion0
  NonLocalECP     NonLocalECPotential: ion0


=========================================================
  Start VMC
  File Root qmc.s000 append = no 
=========================================================
Resetting walkers
  Adding 21 walkers to 0 existing sets
  Total number of walkers: 4.2000000000e+01
  Total weight: 4.2000000000e+01
  Resetting Properties of the walkers 1 x 14

<vmc function="put">
  qmc_counter=0  my_counter=0
  time step      = 5.0000000000e-01
  blocks         = 20
  steps          = 50
  substeps       = 8
  current        = 0
  target samples = 0.0000000000e+00
  walkers/mpi    = 21

  stepsbetweensamples = 1050
  SpinMoves      = no
<parameter name="blocks" condition="int">20</parameter>
<parameter name="blocks_between_recompute" condition="int">0</parameter>
<parameter name="check_properties" condition="int">100</parameter>
<parameter name="checkproperties" condition="int">100</parameter>
<parameter name="current" condition="int">0</parameter>
<parameter name="dmcwalkersperthread" condition="real">0.0000000000e+00</parameter>
<parameter name="maxcpusecs" condition="real">3.6000000000e+05</parameter>
<parameter name="record_configs" condition="int">0</parameter>
<parameter name="record_walkers" condition="int">1050</parameter>
<parameter name="recordconfigs" condition="int">0</parameter>
<parameter name="recordwalkers" condition="int">1050</parameter>
<parameter name="rewind" condition="int">0</parameter>
<parameter name="samples" condition="real">0.0000000000e+00</parameter>
<parameter name="samplesperthread" condition="real">0.0000000000e+00</parameter>
<parameter name="spinmass" condition="double">1.0000000000e+00</parameter>
<parameter name="spinmoves" condition="string">no</parameter>
<parameter name="steps" condition="int">50</parameter>
<parameter name="stepsbetweensamples" condition="int">1050</parameter>
<parameter name="store_configs" condition="int">0</parameter>
<parameter name="storeconfigs" condition="int">0</parameter>
<parameter name="sub_steps" condition="int">8</parameter>
<parameter name="substeps" condition="int">8</parameter>
<parameter name="tau" condition="au">5.0000000000e-01</parameter>
<parameter name="time_step" condition="au">5.0000000000e-01</parameter>
<parameter name="timestep" condition="au">5.0000000000e-01</parameter>
<parameter name="use_drift" condition="string">no</parameter>
<parameter name="usedrift" condition="string">no</parameter>
<parameter name="walkers" condition="int">21</parameter>
<parameter name="warmup_steps" condition="int">100</parameter>
<parameter name="warmupsteps" condition="int">100</parameter>
  DumpConfig==false Nothing (configurations, state) will be saved.
  Walker Samples are dumped every 1050 steps.
</vmc>
  Set drift_modifier UNR parameter a = 1.0000000000e+00
  CloneManager::makeClones makes 21 clones for W/Psi/H.
  Cloning methods for both Psi and H are used
===== Memory Usage before cloning =====
Available memory on node 0, free + buffers : 571975 MB
Memory footprint by rank 0 on node 0       : 176 MB
==================================================
===== Memory Usage after cloning =====
Available memory on node 0, free + buffers : 571975 MB
Memory footprint by rank 0 on node 0       : 176 MB
==================================================
  Initial partition of walkers 0 1 2 3 4 5 6 7 8 9 10 11 12 13 14 15 16 17 18 19 20 21 

  Using Particle by Particle moves
  Walker moves without drift
  Total Sample Size   =0
  Walker distribution on root = 0 1 2 3 4 5 6 7 8 9 10 11 12 13 14 15 16 17 18 19 20 21 
  Using Locality Approximation
===== Memory Usage after the buffer registration =====
Available memory on node 0, free + buffers : 571975 MB
Memory footprint by rank 0 on node 0       : 176 MB
==================================================
  Anonymous Buffer size per walker : 19168 Bytes.
MEMORY increase 0 MB VMC::resetRun
====================================================
  SimpleFixedNodeBranch::finalize after a VMC block
    QMC counter        = 0
    time step          = 0.5
    reference energy   = -6.14395
    reference variance = 0.49486
====================================================
  QMC Execution time = 1.7480e+00 secs
Loop execution max-interations = 4
BRANCH resetRun
  Continue with the same input as the previous block.
 SimpleFixedNodeBranch::resetRun detected changes in <parameter>'s 
 BranchMode : 0000001100 0000001100
 iParam (old): 100               1                 0                 0                 42                42                1                 0                 
 iParam (new): 100               1                 0                 0                 42                42                1                 0                 
 vParam (old): 5.0000000000e-01  5.0000000000e-01  -6.1439542471e+00 -6.1439542471e+00 1.0000000000e+00  1.0000000000e+00  1.0000000000e+00  1.0000000000e+00  4.9485988177e-01  -6.1439542471e+00 1.0000000000e+00  1.0000000000e+00  1.0000000000e+01  1.0000000000e+00  1.0000000000e+00  1.0000000000e+00  1.0000000000e+00  
 vParam (new): 5.0000000000e-01  5.0000000000e-01  -6.1439542471e+00 -6.1439542471e+00 1.0000000000e+00  1.0000000000e+00  1.0000000000e+00  1.0000000000e+00  4.9485988177e-01  -6.1439542471e+00 1.0000000000e+00  1.0000000000e+00  1.0000000000e+01  1.0000000000e+00  1.0000000000e+00  1.0000000000e+00  1.0000000000e+00  

=========================================================
  Start QMCFixedSampleLinearOptimize
  File Root qmc.s001 append = no 
=========================================================
  Skip QMCDriver::putQMCInfo 
  Resetting Properties of the walkers 1 x 14

=========================================================
  Start VMC
  File Root qmc.s001 append = no 
=========================================================
Resetting walkers
  Using the current 21 walkers.
  Total number of walkers: 4.2000000000e+01
  Total weight: 4.2000000000e+01
  Resetting Properties of the walkers 1 x 14

<vmc function="put">
  qmc_counter=0  my_counter=0
  time step      = 5.0000000000e-01
  blocks         = 20
  steps          = 20
  substeps       = 4
  current        = 0
  target samples = 1.6000000000e+04
  walkers/mpi    = 21

  stepsbetweensamples = 1
  SpinMoves      = no
<parameter name="blocks" condition="int">20</parameter>
<parameter name="blocks_between_recompute" condition="int">0</parameter>
<parameter name="check_properties" condition="int">100</parameter>
<parameter name="checkproperties" condition="int">100</parameter>
<parameter name="current" condition="int">0</parameter>
<parameter name="dmcwalkersperthread" condition="real">3.8100000000e+02</parameter>
<parameter name="maxcpusecs" condition="real">3.6000000000e+05</parameter>
<parameter name="record_configs" condition="int">0</parameter>
<parameter name="record_walkers" condition="int">1</parameter>
<parameter name="recordconfigs" condition="int">0</parameter>
<parameter name="recordwalkers" condition="int">1</parameter>
<parameter name="rewind" condition="int">0</parameter>
<parameter name="samples" condition="real">1.6000000000e+04</parameter>
<parameter name="samplesperthread" condition="real">3.8100000000e+02</parameter>
<parameter name="spinmass" condition="double">1.0000000000e+00</parameter>
<parameter name="spinmoves" condition="string">no</parameter>
<parameter name="steps" condition="int">20</parameter>
<parameter name="stepsbetweensamples" condition="int">1</parameter>
<parameter name="store_configs" condition="int">0</parameter>
<parameter name="storeconfigs" condition="int">0</parameter>
<parameter name="sub_steps" condition="int">4</parameter>
<parameter name="substeps" condition="int">4</parameter>
<parameter name="tau" condition="au">5.0000000000e-01</parameter>
<parameter name="time_step" condition="au">5.0000000000e-01</parameter>
<parameter name="timestep" condition="au">5.0000000000e-01</parameter>
<parameter name="use_drift" condition="string">no</parameter>
<parameter name="usedrift" condition="string">no</parameter>
<parameter name="walkers" condition="int">21</parameter>
<parameter name="warmup_steps" condition="int">100</parameter>
<parameter name="warmupsteps" condition="int">100</parameter>
  DumpConfig==false Nothing (configurations, state) will be saved.
  Walker Samples are dumped every 1 steps.
</vmc>
    Restarting, cummulative properties:
      energy     = -6.1439542471e+00
      variance   = 0.0000000000e+00
      r2accepted = 1.0000000000e-10
      r2proposed = 1.0000000000e-10
  Set drift_modifier UNR parameter a = 1.0000000000e+00
 Using QMCCostFunction::QMCCostFunction
 Using Default Cost Function: Cost = <|E-E_ff|^2>
  Set drift_modifier UNR parameter a = 1.0000000000e+00
  EstimatorManagerBase::add replace LocalEnergy estimator.
<optimization-report>
<vmc stage="main" blocks="20">
  Cannot make clones again. Use existing 21 clones
  Initial partition of walkers 0 1 2 3 4 5 6 7 8 9 10 11 12 13 14 15 16 17 18 19 20 21 

  Using Particle by Particle moves
  Walker moves without drift
  Total Sample Size   =16002
  Walker distribution on root = 0 1 2 3 4 5 6 7 8 9 10 11 12 13 14 15 16 17 18 19 20 21 
  Using Locality Approximation
===== Memory Usage after the buffer registration =====
Available memory on node 0, free + buffers : 571901 MB
Memory footprint by rank 0 on node 0       : 176 MB
==================================================
  Anonymous Buffer size per walker : 19168 Bytes.
MEMORY increase 0 MB VMC::resetRun
====================================================
  SimpleFixedNodeBranch::finalize after a VMC block
    QMC counter        = 1
    time step          = 0.5
    reference energy   = -6.06167
    reference variance = 0.500465
====================================================
  Execution time = 5.2291e-01
</vmc>
<opt stage="setup">
  <log>
   Reading configurations from h5FileRoot qmc.s001
  QMCCostFunction is created with 21 threads.
  Using Nonlocal PP in Opt: no
   Number of samples loaded to each thread : 381 381 381 381 381 381 381 381 381 381 381 381 381 381 381 381 381 381 381 381 381 
  VMC Eavg = -6.0924e+00
  VMC Evar = 7.3079e-01
  Total weights = 1.6002e+04
  Execution time = 3.8611e-01
  </log>
</opt>
<opt stage="main" walkers="16002">
  <log>

*****************************************
Building overlap and Hamiltonian matrices
*****************************************

Among totally 144 optimized parameters, largest LM parameter change : 2.1161e-01 at parameter 10

******************************************************************************
Init Cost =  -5.4101e+00    New Cost =  -5.5873e+00  Delta Cost =  -1.7722e-01
******************************************************************************

The new set of parameters is valid. Updating the trial wave function!

*****************************************************************************
Applying the update for shift_i =   1.0000e-02     and shift_s =   2.5000e-01
*****************************************************************************
  Execution time = 1.0911e+00
  </log>
  <optVariables href="qmc.s001.opt.xml">
   uu_0                 4.509809e-02 1 1  ON 0
   uu_1                 4.000711e-02 1 1  ON 1
   uu_2                 2.196534e-02 1 1  ON 2
   uu_3                 2.314608e-02 1 1  ON 3
   uu_4                 7.987858e-03 1 1  ON 4
   uu_5                -1.595385e-02 1 1  ON 5
   uu_6                -2.698814e-02 1 1  ON 6
   uu_7                -3.179806e-02 1 1  ON 7
   uu_8                -3.324876e-02 1 1  ON 8
   uu_9                -3.097990e-02 1 1  ON 9
   ud_0                 2.116067e-01 1 1  ON 10
   ud_1                 7.881150e-02 1 1  ON 11
   ud_2                 4.508018e-02 1 1  ON 12
   ud_3                 3.538782e-02 1 1  ON 13
   ud_4                 1.475570e-02 1 1  ON 14
   ud_5                -1.508992e-02 1 1  ON 15
   ud_6                -3.288627e-02 1 1  ON 16
   ud_7                -4.284381e-02 1 1  ON 17
   ud_8                -4.472790e-02 1 1  ON 18
   ud_9                -4.247908e-02 1 1  ON 19
  eSi_0                -4.898304e-02 1 1  ON 20
  eSi_1                -7.514425e-02 1 1  ON 21
  eSi_2                -7.915190e-02 1 1  ON 22
  eSi_3                 2.890855e-02 1 1  ON 23
  eSi_4                 9.592063e-02 1 1  ON 24
  eSi_5                -7.060705e-03 1 1  ON 25
  eSi_6                 1.897988e-02 1 1  ON 26
  eSi_7                 2.922135e-02 1 1  ON 27
  eSi_8                 3.692322e-02 1 1  ON 28
  eSi_9                 2.649710e-03 1 1  ON 29
   eH_0                -1.774014e-01 1 1  ON 30
   eH_1                -9.736333e-02 1 1  ON 31
   eH_2                -5.132267e-02 1 1  ON 32
   eH_3                -1.587795e-02 1 1  ON 33
   eH_4                 2.059067e-03 1 1  ON 34
   eH_5                 1.949255e-02 1 1  ON 35
   eH_6                 3.465345e-02 1 1  ON 36
   eH_7                 6.888221e-02 1 1  ON 37
   eH_8                 6.561897e-02 1 1  ON 38
   eH_9                 5.825230e-02 1 1  ON 39
 uuSi_0                 1.628947e-05 1 1  ON 40
 uuSi_1                -2.175948e-05 1 1  ON 41
 uuSi_2                -2.909935e-05 1 1  ON 42
 uuSi_3                -1.823937e-05 1 1  ON 43
 uuSi_4                -5.557061e-06 1 1  ON 44
 uuSi_5                 6.471800e-06 1 1  ON 45
 uuSi_6                -6.983940e-05 1 1  ON 46
 uuSi_7                 7.319347e-05 1 1  ON 47
 uuSi_8                 4.951165e-06 1 1  ON 48
 uuSi_9                 1.085129e-05 1 1  ON 49
uuSi_10                -2.306415e-05 1 1  ON 50
uuSi_11                -8.391259e-06 1 1  ON 51
uuSi_12                -1.991564e-06 1 1  ON 52
uuSi_13                 2.627704e-05 1 1  ON 53
uuSi_14                 7.990911e-06 1 1  ON 54
uuSi_15                -6.817565e-07 1 1  ON 55
uuSi_16                -5.703645e-06 1 1  ON 56
uuSi_17                 3.827631e-05 1 1  ON 57
uuSi_18                -2.716207e-06 1 1  ON 58
uuSi_19                -6.643230e-07 1 1  ON 59
uuSi_20                -1.317914e-05 1 1  ON 60
uuSi_21                -1.310325e-06 1 1  ON 61
uuSi_22                 5.202750e-07 1 1  ON 62
uuSi_23                 4.876915e-06 1 1  ON 63
uuSi_24                 7.590015e-08 1 1  ON 64
uuSi_25                -1.175137e-07 1 1  ON 65
 udSi_0                -2.647400e-05 1 1  ON 66
 udSi_1                -2.225073e-05 1 1  ON 67
 udSi_2                 3.731815e-05 1 1  ON 68
 udSi_3                 2.553785e-05 1 1  ON 69
 udSi_4                -1.133938e-05 1 1  ON 70
 udSi_5                -1.095135e-06 1 1  ON 71
 udSi_6                 1.817782e-05 1 1  ON 72
 udSi_7                 9.975334e-05 1 1  ON 73
 udSi_8                 4.353750e-05 1 1  ON 74
 udSi_9                -2.021650e-05 1 1  ON 75
udSi_10                 4.647800e-06 1 1  ON 76
udSi_11                -6.917523e-05 1 1  ON 77
udSi_12                -1.146360e-05 1 1  ON 78
udSi_13                -2.869851e-05 1 1  ON 79
udSi_14                 1.407484e-05 1 1  ON 80
udSi_15                -3.240440e-07 1 1  ON 81
udSi_16                 8.290873e-05 1 1  ON 82
udSi_17                -3.001272e-05 1 1  ON 83
udSi_18                 4.392517e-05 1 1  ON 84
udSi_19                 1.165590e-06 1 1  ON 85
udSi_20                -9.817866e-06 1 1  ON 86
udSi_21                -7.555883e-06 1 1  ON 87
udSi_22                 6.759484e-07 1 1  ON 88
udSi_23                 3.582722e-06 1 1  ON 89
udSi_24                 1.092425e-06 1 1  ON 90
udSi_25                -2.019387e-07 1 1  ON 91
  uuH_0                -9.890970e-06 1 1  ON 92
  uuH_1                -1.095796e-05 1 1  ON 93
  uuH_2                 1.177238e-05 1 1  ON 94
  uuH_3                 8.701969e-06 1 1  ON 95
  uuH_4                -2.297585e-06 1 1  ON 96
  uuH_5                 3.993744e-06 1 1  ON 97
  uuH_6                 4.030592e-06 1 1  ON 98
  uuH_7                 6.710119e-06 1 1  ON 99
  uuH_8                 1.043349e-05 1 1  ON 100
  uuH_9                -1.492518e-06 1 1  ON 101
 uuH_10                 3.013378e-06 1 1  ON 102
 uuH_11                -8.724204e-06 1 1  ON 103
 uuH_12                -2.786467e-06 1 1  ON 104
 uuH_13                 1.273460e-06 1 1  ON 105
 uuH_14                 2.430547e-06 1 1  ON 106
 uuH_15                 3.585258e-08 1 1  ON 107
 uuH_16                 1.744815e-05 1 1  ON 108
 uuH_17                 2.605857e-06 1 1  ON 109
 uuH_18                 1.759703e-07 1 1  ON 110
 uuH_19                 1.293179e-06 1 1  ON 111
 uuH_20                -8.212381e-06 1 1  ON 112
 uuH_21                 2.748242e-07 1 1  ON 113
 uuH_22                -1.499098e-07 1 1  ON 114
 uuH_23                 3.520202e-06 1 1  ON 115
 uuH_24                -2.997008e-07 1 1  ON 116
 uuH_25                 4.484132e-08 1 1  ON 117
  udH_0                -1.262484e-05 1 1  ON 118
  udH_1                -3.811611e-06 1 1  ON 119
  udH_2                 5.816635e-06 1 1  ON 120
  udH_3                 1.713681e-06 1 1  ON 121
  udH_4                -2.386091e-06 1 1  ON 122
  udH_5                 8.814215e-06 1 1  ON 123
  udH_6                 7.091687e-06 1 1  ON 124
  udH_7                 8.802838e-06 1 1  ON 125
  udH_8                 2.014689e-06 1 1  ON 126
  udH_9                 5.404258e-07 1 1  ON 127
 udH_10                -3.103130e-06 1 1  ON 128
 udH_11                -5.507615e-06 1 1  ON 129
 udH_12                 3.644400e-07 1 1  ON 130
 udH_13                -5.448426e-06 1 1  ON 131
 udH_14                -1.163727e-06 1 1  ON 132
 udH_15                 6.057855e-08 1 1  ON 133
 udH_16                 2.690413e-05 1 1  ON 134
 udH_17                -1.311059e-05 1 1  ON 135
 udH_18                 3.905327e-06 1 1  ON 136
 udH_19                -5.491180e-07 1 1  ON 137
 udH_20                -4.855742e-06 1 1  ON 138
 udH_21                 7.150956e-07 1 1  ON 139
 udH_22                -5.987638e-08 1 1  ON 140
 udH_23                 2.550668e-06 1 1  ON 141
 udH_24                -4.752618e-07 1 1  ON 142
 udH_25                 6.056808e-08 1 1  ON 143
  </optVariables>
   Restore the number of walkers to 21, removing 0 walkers.
</opt>
</optimization-report>
  QMC Execution time = 1.094 secs

=========================================================
  Start QMCFixedSampleLinearOptimize
  File Root qmc.s002 append = no 
=========================================================
  Skip QMCDriver::putQMCInfo 
  Resetting Properties of the walkers 1 x 14

=========================================================
  Start VMC
  File Root qmc.s002 append = no 
=========================================================
Using existing walkers 
  Resetting Properties of the walkers 1 x 14

<vmc function="put">
  qmc_counter=1  my_counter=0
  time step      = 0.5
  blocks         = 20
  steps          = 20
  substeps       = 4
  current        = 0
  target samples = 1.6e+04
  walkers/mpi    = 21

  stepsbetweensamples = 1
  SpinMoves      = no
<parameter name="blocks" condition="int">20</parameter>
<parameter name="blocks_between_recompute" condition="int">0</parameter>
<parameter name="check_properties" condition="int">100</parameter>
<parameter name="checkproperties" condition="int">100</parameter>
<parameter name="current" condition="int">0</parameter>
<parameter name="dmcwalkersperthread" condition="real">381</parameter>
<parameter name="maxcpusecs" condition="real">3.6e+05</parameter>
<parameter name="record_configs" condition="int">0</parameter>
<parameter name="record_walkers" condition="int">1</parameter>
<parameter name="recordconfigs" condition="int">0</parameter>
<parameter name="recordwalkers" condition="int">1</parameter>
<parameter name="rewind" condition="int">0</parameter>
<parameter name="samples" condition="real">1.6e+04</parameter>
<parameter name="samplesperthread" condition="real">381</parameter>
<parameter name="spinmass" condition="double">1</parameter>
<parameter name="spinmoves" condition="string">no</parameter>
<parameter name="steps" condition="int">20</parameter>
<parameter name="stepsbetweensamples" condition="int">1</parameter>
<parameter name="store_configs" condition="int">0</parameter>
<parameter name="storeconfigs" condition="int">0</parameter>
<parameter name="sub_steps" condition="int">4</parameter>
<parameter name="substeps" condition="int">4</parameter>
<parameter name="tau" condition="au">0.5</parameter>
<parameter name="time_step" condition="au">0.5</parameter>
<parameter name="timestep" condition="au">0.5</parameter>
<parameter name="use_drift" condition="string">no</parameter>
<parameter name="usedrift" condition="string">no</parameter>
<parameter name="walkers" condition="int">1</parameter>
<parameter name="warmup_steps" condition="int">100</parameter>
<parameter name="warmupsteps" condition="int">100</parameter>
  DumpConfig==false Nothing (configurations, state) will be saved.
  Walker Samples are dumped every 1 steps.
</vmc>
    Restarting, cummulative properties:
      energy     = -6.103
      variance   = 0
      r2accepted = 1e-10
      r2proposed = 1e-10
  Set drift_modifier UNR parameter a = 1
 Using QMCCostFunction::QMCCostFunction
 Using Default Cost Function: Cost = <|E-E_ff|^2>
  Set drift_modifier UNR parameter a = 1.0000e+00
  EstimatorManagerBase::add replace LocalEnergy estimator.
<optimization-report>
<vmc stage="main" blocks="20">
  Cannot make clones again. Use existing 21 clones
  Initial partition of walkers 0 1 2 3 4 5 6 7 8 9 10 11 12 13 14 15 16 17 18 19 20 21 

  Using Particle by Particle moves
  Walker moves without drift
  Total Sample Size   =16002
  Walker distribution on root = 0 1 2 3 4 5 6 7 8 9 10 11 12 13 14 15 16 17 18 19 20 21 
  Using Locality Approximation
===== Memory Usage after the buffer registration =====
Available memory on node 0, free + buffers : 571858 MB
Memory footprint by rank 0 on node 0       : 181 MB
==================================================
  Anonymous Buffer size per walker : 19168 Bytes.
MEMORY increase 0 MB VMC::resetRun
====================================================
  SimpleFixedNodeBranch::finalize after a VMC block
    QMC counter        = 2
    time step          = 0.5
    reference energy   = -6.24347
    reference variance = 0.0875897
====================================================
  Execution time = 5.1912e-01
</vmc>
<opt stage="setup">
  <log>
   Reading configurations from h5FileRoot qmc.s002
  QMCCostFunction is created with 21 threads.
  Using Nonlocal PP in Opt: no
   Number of samples loaded to each thread : 381 381 381 381 381 381 381 381 381 381 381 381 381 381 381 381 381 381 381 381 381 
  VMC Eavg = -6.2444e+00
  VMC Evar = 2.9517e-01
  Total weights = 1.6002e+04
  Execution time = 3.7758e-01
  </log>
</opt>
<opt stage="main" walkers="16002">
  <log>

*****************************************
Building overlap and Hamiltonian matrices
*****************************************

Among totally 144 optimized parameters, largest LM parameter change : 1.6943e-01 at parameter 10

******************************************************************************
Init Cost =  -5.5904e+00    New Cost =  -5.6232e+00  Delta Cost =  -3.2756e-02
******************************************************************************

The new set of parameters is valid. Updating the trial wave function!

*****************************************************************************
Applying the update for shift_i =   1.0000e-02     and shift_s =   6.2500e-02
*****************************************************************************
  Execution time = 1.0767e+00
  </log>
  <optVariables href="qmc.s002.opt.xml">
   uu_0                 9.831867e-02 1 1  ON 0
   uu_1                 7.708225e-02 1 1  ON 1
   uu_2                 6.949257e-02 1 1  ON 2
   uu_3                 5.378873e-02 1 1  ON 3
   uu_4                 2.804771e-02 1 1  ON 4
   uu_5                -7.539518e-03 1 1  ON 5
   uu_6                -3.490088e-02 1 1  ON 6
   uu_7                -5.577881e-02 1 1  ON 7
   uu_8                -6.074294e-02 1 1  ON 8
   uu_9                -5.168225e-02 1 1  ON 9
   ud_0                 3.810416e-01 1 1  ON 10
   ud_1                 1.721361e-01 1 1  ON 11
   ud_2                 1.016045e-01 1 1  ON 12
   ud_3                 7.085170e-02 1 1  ON 13
   ud_4                 3.336623e-02 1 1  ON 14
   ud_5                -1.361942e-02 1 1  ON 15
   ud_6                -4.974197e-02 1 1  ON 16
   ud_7                -7.726140e-02 1 1  ON 17
   ud_8                -9.077332e-02 1 1  ON 18
   ud_9                -8.106647e-02 1 1  ON 19
  eSi_0                -6.569235e-02 1 1  ON 20
  eSi_1                -1.361687e-01 1 1  ON 21
  eSi_2                -1.422254e-01 1 1  ON 22
  eSi_3                 3.477398e-02 1 1  ON 23
  eSi_4                 1.304783e-01 1 1  ON 24
  eSi_5                -1.396490e-02 1 1  ON 25
  eSi_6                 4.262151e-02 1 1  ON 26
  eSi_7                 6.507367e-02 1 1  ON 27
  eSi_8                 6.493078e-02 1 1  ON 28
  eSi_9                 1.150400e-02 1 1  ON 29
   eH_0                -2.911567e-01 1 1  ON 30
   eH_1                -1.910223e-01 1 1  ON 31
   eH_2                -1.111849e-01 1 1  ON 32
   eH_3                -5.146923e-02 1 1  ON 33
   eH_4                -5.972534e-03 1 1  ON 34
   eH_5                 9.251238e-03 1 1  ON 35
   eH_6                 5.000547e-02 1 1  ON 36
   eH_7                 1.149393e-01 1 1  ON 37
   eH_8                 1.374165e-01 1 1  ON 38
   eH_9                 1.194524e-01 1 1  ON 39
 uuSi_0                 1.609891e-05 1 1  ON 40
 uuSi_1                -1.272781e-04 1 1  ON 41
 uuSi_2                -8.019202e-05 1 1  ON 42
 uuSi_3                 4.040335e-05 1 1  ON 43
 uuSi_4                 1.156110e-05 1 1  ON 44
 uuSi_5                 1.279302e-05 1 1  ON 45
 uuSi_6                -2.163222e-04 1 1  ON 46
 uuSi_7                 9.121758e-05 1 1  ON 47
 uuSi_8                -6.550490e-05 1 1  ON 48
 uuSi_9                 1.040222e-04 1 1  ON 49
uuSi_10                 1.434565e-05 1 1  ON 50
uuSi_11                 2.457187e-05 1 1  ON 51
uuSi_12                 1.432389e-05 1 1  ON 52
uuSi_13                -3.703079e-05 1 1  ON 53
uuSi_14                -5.578510e-06 1 1  ON 54
uuSi_15                -8.013182e-07 1 1  ON 55
uuSi_16                -7.387743e-05 1 1  ON 56
uuSi_17                 2.301805e-07 1 1  ON 57
uuSi_18                -1.821440e-05 1 1  ON 58
uuSi_19                -3.483404e-06 1 1  ON 59
uuSi_20                 1.290506e-05 1 1  ON 60
uuSi_21                 2.505130e-06 1 1  ON 61
uuSi_22                 2.489136e-07 1 1  ON 62
uuSi_23                 4.128443e-07 1 1  ON 63
uuSi_24                -4.677575e-07 1 1  ON 64
uuSi_25                -1.493354e-08 1 1  ON 65
 udSi_0                -1.923239e-05 1 1  ON 66
 udSi_1                 8.559870e-05 1 1  ON 67
 udSi_2                 5.454347e-05 1 1  ON 68
 udSi_3                -2.634999e-05 1 1  ON 69
 udSi_4                -1.662468e-05 1 1  ON 70
 udSi_5                -1.387952e-05 1 1  ON 71
 udSi_6                 1.136796e-04 1 1  ON 72
 udSi_7                 7.728540e-05 1 1  ON 73
 udSi_8                 6.422652e-05 1 1  ON 74
 udSi_9                -8.458832e-05 1 1  ON 75
udSi_10                -2.272117e-05 1 1  ON 76
udSi_11                -5.370981e-05 1 1  ON 77
udSi_12                -1.468776e-05 1 1  ON 78
udSi_13                 2.611581e-05 1 1  ON 79
udSi_14                 1.680009e-05 1 1  ON 80
udSi_15                -3.788744e-07 1 1  ON 81
udSi_16                 8.065181e-05 1 1  ON 82
udSi_17                 2.765840e-05 1 1  ON 83
udSi_18                 1.505031e-05 1 1  ON 84
udSi_19                 3.251586e-06 1 1  ON 85
udSi_20                -2.118539e-05 1 1  ON 86
udSi_21                -3.694769e-06 1 1  ON 87
udSi_22                 3.083156e-07 1 1  ON 88
udSi_23                 5.067629e-06 1 1  ON 89
udSi_24                 2.956814e-07 1 1  ON 90
udSi_25                -1.062944e-07 1 1  ON 91
  uuH_0                -2.517982e-05 1 1  ON 92
  uuH_1                 1.729444e-05 1 1  ON 93
  uuH_2                 6.491237e-06 1 1  ON 94
  uuH_3                -1.028390e-05 1 1  ON 95
  uuH_4                -4.871923e-06 1 1  ON 96
  uuH_5                 3.499821e-06 1 1  ON 97
  uuH_6                 1.367315e-05 1 1  ON 98
  uuH_7                -1.326897e-05 1 1  ON 99
  uuH_8                 7.424560e-06 1 1  ON 100
  uuH_9                 2.733772e-05 1 1  ON 101
 uuH_10                -1.239117e-05 1 1  ON 102
 uuH_11                 1.792926e-05 1 1  ON 103
 uuH_12                -5.905309e-06 1 1  ON 104
 uuH_13                 4.416879e-06 1 1  ON 105
 uuH_14                 3.320122e-06 1 1  ON 106
 uuH_15                 2.087688e-07 1 1  ON 107
 uuH_16                -4.974540e-05 1 1  ON 108
 uuH_17                 2.836117e-05 1 1  ON 109
 uuH_18                -1.831904e-05 1 1  ON 110
 uuH_19                 4.159736e-06 1 1  ON 111
 uuH_20                 6.161167e-06 1 1  ON 112
 uuH_21                 6.342416e-07 1 1  ON 113
 uuH_22                -3.066019e-07 1 1  ON 114
 uuH_23                -5.108445e-08 1 1  ON 115
 uuH_24                -7.359072e-08 1 1  ON 116
 uuH_25                 1.627033e-08 1 1  ON 117
  udH_0                -1.309238e-05 1 1  ON 118
  udH_1                -3.102717e-06 1 1  ON 119
  udH_2                -3.276971e-06 1 1  ON 120
  udH_3                -1.330428e-06 1 1  ON 121
  udH_4                -2.212578e-06 1 1  ON 122
  udH_5                 1.236858e-05 1 1  ON 123
  udH_6                -5.032784e-06 1 1  ON 124
  udH_7                 8.368375e-06 1 1  ON 125
  udH_8                -5.736367e-06 1 1  ON 126
  udH_9                 1.486564e-05 1 1  ON 127
 udH_10                -6.586455e-06 1 1  ON 128
 udH_11                 4.734601e-06 1 1  ON 129
 udH_12                 7.563396e-07 1 1  ON 130
 udH_13                -7.684151e-06 1 1  ON 131
 udH_14                -1.540298e-06 1 1  ON 132
 udH_15                 5.842593e-08 1 1  ON 133
 udH_16                 5.348583e-06 1 1  ON 134
 udH_17                -7.927849e-06 1 1  ON 135
 udH_18                -3.569355e-06 1 1  ON 136
 udH_19                 5.117874e-07 1 1  ON 137
 udH_20                 1.964332e-06 1 1  ON 138
 udH_21                 8.197423e-07 1 1  ON 139
 udH_22                -1.420151e-07 1 1  ON 140
 udH_23                 7.637526e-07 1 1  ON 141
 udH_24                -2.929711e-07 1 1  ON 142
 udH_25                 4.414377e-08 1 1  ON 143
  </optVariables>
   Restore the number of walkers to 21, removing 0 walkers.
</opt>
</optimization-report>
  QMC Execution time = 1.079 secs

=========================================================
  Start QMCFixedSampleLinearOptimize
  File Root qmc.s003 append = no 
=========================================================
  Skip QMCDriver::putQMCInfo 
  Resetting Properties of the walkers 1 x 14

=========================================================
  Start VMC
  File Root qmc.s003 append = no 
=========================================================
Using existing walkers 
  Resetting Properties of the walkers 1 x 14

<vmc function="put">
  qmc_counter=2  my_counter=0
  time step      = 0.5
  blocks         = 20
  steps          = 20
  substeps       = 4
  current        = 0
  target samples = 1.6e+04
  walkers/mpi    = 21

  stepsbetweensamples = 1
  SpinMoves      = no
<parameter name="blocks" condition="int">20</parameter>
<parameter name="blocks_between_recompute" condition="int">0</parameter>
<parameter name="check_properties" condition="int">100</parameter>
<parameter name="checkproperties" condition="int">100</parameter>
<parameter name="current" condition="int">0</parameter>
<parameter name="dmcwalkersperthread" condition="real">381</parameter>
<parameter name="maxcpusecs" condition="real">3.6e+05</parameter>
<parameter name="record_configs" condition="int">0</parameter>
<parameter name="record_walkers" condition="int">1</parameter>
<parameter name="recordconfigs" condition="int">0</parameter>
<parameter name="recordwalkers" condition="int">1</parameter>
<parameter name="rewind" condition="int">0</parameter>
<parameter name="samples" condition="real">1.6e+04</parameter>
<parameter name="samplesperthread" condition="real">381</parameter>
<parameter name="spinmass" condition="double">1</parameter>
<parameter name="spinmoves" condition="string">no</parameter>
<parameter name="steps" condition="int">20</parameter>
<parameter name="stepsbetweensamples" condition="int">1</parameter>
<parameter name="store_configs" condition="int">0</parameter>
<parameter name="storeconfigs" condition="int">0</parameter>
<parameter name="sub_steps" condition="int">4</parameter>
<parameter name="substeps" condition="int">4</parameter>
<parameter name="tau" condition="au">0.5</parameter>
<parameter name="time_step" condition="au">0.5</parameter>
<parameter name="timestep" condition="au">0.5</parameter>
<parameter name="use_drift" condition="string">no</parameter>
<parameter name="usedrift" condition="string">no</parameter>
<parameter name="walkers" condition="int">1</parameter>
<parameter name="warmup_steps" condition="int">100</parameter>
<parameter name="warmupsteps" condition="int">100</parameter>
  DumpConfig==false Nothing (configurations, state) will be saved.
  Walker Samples are dumped every 1 steps.
</vmc>
    Restarting, cummulative properties:
      energy     = -6.15
      variance   = 0
      r2accepted = 1e-10
      r2proposed = 1e-10
  Set drift_modifier UNR parameter a = 1
 Using QMCCostFunction::QMCCostFunction
 Using Default Cost Function: Cost = <|E-E_ff|^2>
  Set drift_modifier UNR parameter a = 1.0000e+00
  EstimatorManagerBase::add replace LocalEnergy estimator.
<optimization-report>
<vmc stage="main" blocks="20">
  Cannot make clones again. Use existing 21 clones
  Initial partition of walkers 0 1 2 3 4 5 6 7 8 9 10 11 12 13 14 15 16 17 18 19 20 21 

  Using Particle by Particle moves
  Walker moves without drift
  Total Sample Size   =16002
  Walker distribution on root = 0 1 2 3 4 5 6 7 8 9 10 11 12 13 14 15 16 17 18 19 20 21 
  Using Locality Approximation
===== Memory Usage after the buffer registration =====
Available memory on node 0, free + buffers : 571857 MB
Memory footprint by rank 0 on node 0       : 181 MB
==================================================
  Anonymous Buffer size per walker : 19168 Bytes.
MEMORY increase 0 MB VMC::resetRun
====================================================
  SimpleFixedNodeBranch::finalize after a VMC block
    QMC counter        = 3
    time step          = 0.5
    reference energy   = -6.24375
    reference variance = 0.0841617
====================================================
  Execution time = 5.2011e-01
</vmc>
<opt stage="setup">
  <log>
   Reading configurations from h5FileRoot qmc.s003
  QMCCostFunction is created with 21 threads.
  Using Nonlocal PP in Opt: no
   Number of samples loaded to each thread : 381 381 381 381 381 381 381 381 381 381 381 381 381 381 381 381 381 381 381 381 381 
  VMC Eavg = -6.2677e+00
  VMC Evar = 2.0378e-01
  Total weights = 1.6002e+04
  Execution time = 3.7594e-01
  </log>
</opt>
<opt stage="main" walkers="16002">
  <log>

*****************************************
Building overlap and Hamiltonian matrices
*****************************************

Among totally 144 optimized parameters, largest LM parameter change : 1.0024e-01 at parameter 10

******************************************************************************
Init Cost =  -5.6205e+00    New Cost =  -5.6273e+00  Delta Cost =  -6.7903e-03
******************************************************************************

The new set of parameters is valid. Updating the trial wave function!

*****************************************************************************
Applying the update for shift_i =   1.0000e-02     and shift_s =   1.5625e-02
*****************************************************************************
  Execution time = 1.0771e+00
  </log>
  <optVariables href="qmc.s003.opt.xml">
   uu_0                 1.397339e-01 1 1  ON 0
   uu_1                 1.054289e-01 1 1  ON 1
   uu_2                 8.627117e-02 1 1  ON 2
   uu_3                 6.418035e-02 1 1  ON 3
   uu_4                 3.055113e-02 1 1  ON 4
   uu_5                -6.043784e-03 1 1  ON 5
   uu_6                -3.985705e-02 1 1  ON 6
   uu_7                -5.414554e-02 1 1  ON 7
   uu_8                -6.065487e-02 1 1  ON 8
   uu_9                -6.345386e-02 1 1  ON 9
   ud_0                 4.812779e-01 1 1  ON 10
   ud_1                 2.415605e-01 1 1  ON 11
   ud_2                 1.474504e-01 1 1  ON 12
   ud_3                 9.848497e-02 1 1  ON 13
   ud_4                 4.853308e-02 1 1  ON 14
   ud_5                -1.575637e-02 1 1  ON 15
   ud_6                -6.684256e-02 1 1  ON 16
   ud_7                -1.010428e-01 1 1  ON 17
   ud_8                -1.111510e-01 1 1  ON 18
   ud_9                -1.018396e-01 1 1  ON 19
  eSi_0                -9.894982e-02 1 1  ON 20
  eSi_1                -1.900657e-01 1 1  ON 21
  eSi_2                -1.622636e-01 1 1  ON 22
  eSi_3                 4.451830e-02 1 1  ON 23
  eSi_4                 1.407153e-01 1 1  ON 24
  eSi_5                -1.765296e-02 1 1  ON 25
  eSi_6                 4.528305e-02 1 1  ON 26
  eSi_7                 1.085431e-01 1 1  ON 27
  eSi_8                 1.019985e-01 1 1  ON 28
  eSi_9                 1.794209e-02 1 1  ON 29
   eH_0                -3.823394e-01 1 1  ON 30
   eH_1                -2.771572e-01 1 1  ON 31
   eH_2                -1.805045e-01 1 1  ON 32
   eH_3                -8.298497e-02 1 1  ON 33
   eH_4                -1.429961e-02 1 1  ON 34
   eH_5                 2.610752e-02 1 1  ON 35
   eH_6                 8.333778e-02 1 1  ON 36
   eH_7                 1.643522e-01 1 1  ON 37
   eH_8                 1.701853e-01 1 1  ON 38
   eH_9                 1.326541e-01 1 1  ON 39
 uuSi_0                -3.288758e-06 1 1  ON 40
 uuSi_1                 2.505572e-05 1 1  ON 41
 uuSi_2                -8.384215e-05 1 1  ON 42
 uuSi_3                -2.451631e-05 1 1  ON 43
 uuSi_4                -5.421766e-06 1 1  ON 44
 uuSi_5                -3.917085e-06 1 1  ON 45
 uuSi_6                 6.402394e-06 1 1  ON 46
 uuSi_7                -3.469023e-05 1 1  ON 47
 uuSi_8                -7.745013e-05 1 1  ON 48
 uuSi_9                 2.943719e-05 1 1  ON 49
uuSi_10                -6.231398e-05 1 1  ON 50
uuSi_11                 1.276475e-04 1 1  ON 51
uuSi_12                 5.395356e-06 1 1  ON 52
uuSi_13                -4.125161e-07 1 1  ON 53
uuSi_14                -9.000610e-06 1 1  ON 54
uuSi_15                 1.175551e-07 1 1  ON 55
uuSi_16                -2.158614e-05 1 1  ON 56
uuSi_17                 6.025410e-05 1 1  ON 57
uuSi_18                -9.084228e-05 1 1  ON 58
uuSi_19                 6.392959e-06 1 1  ON 59
uuSi_20                -1.835305e-06 1 1  ON 60
uuSi_21                 1.069261e-05 1 1  ON 61
uuSi_22                -1.148288e-06 1 1  ON 62
uuSi_23                 3.419477e-06 1 1  ON 63
uuSi_24                -1.802212e-06 1 1  ON 64
uuSi_25                 2.139231e-07 1 1  ON 65
 udSi_0                 2.537520e-05 1 1  ON 66
 udSi_1                 1.839526e-04 1 1  ON 67
 udSi_2                 2.884579e-05 1 1  ON 68
 udSi_3                -4.738891e-05 1 1  ON 69
 udSi_4                -1.232901e-05 1 1  ON 70
 udSi_5                -1.987409e-05 1 1  ON 71
 udSi_6                 2.488951e-04 1 1  ON 72
 udSi_7                -7.070983e-05 1 1  ON 73
 udSi_8                 1.311631e-05 1 1  ON 74
 udSi_9                -2.045286e-04 1 1  ON 75
udSi_10                -3.857719e-05 1 1  ON 76
udSi_11                 2.716849e-05 1 1  ON 77
udSi_12                -6.453399e-06 1 1  ON 78
udSi_13                 5.798260e-05 1 1  ON 79
udSi_14                 9.523318e-07 1 1  ON 80
udSi_15                 3.147549e-07 1 1  ON 81
udSi_16                 2.056148e-04 1 1  ON 82
udSi_17                 2.143665e-05 1 1  ON 83
udSi_18                -2.647662e-05 1 1  ON 84
udSi_19                 4.639995e-06 1 1  ON 85
udSi_20                -5.150427e-05 1 1  ON 86
udSi_21                 4.717390e-06 1 1  ON 87
udSi_22                -6.590965e-07 1 1  ON 88
udSi_23                 1.260177e-05 1 1  ON 89
udSi_24                -1.394541e-06 1 1  ON 90
udSi_25                 1.466783e-07 1 1  ON 91
  uuH_0                -3.467957e-05 1 1  ON 92
  uuH_1                -6.771746e-05 1 1  ON 93
  uuH_2                 1.727121e-06 1 1  ON 94
  uuH_3                 2.627031e-05 1 1  ON 95
  uuH_4                 1.915769e-06 1 1  ON 96
  uuH_5                 1.199201e-05 1 1  ON 97
  uuH_6                -9.697597e-05 1 1  ON 98
  uuH_7                 6.540398e-05 1 1  ON 99
  uuH_8                 4.173637e-06 1 1  ON 100
  uuH_9                 9.301394e-05 1 1  ON 101
 uuH_10                 1.727044e-05 1 1  ON 102
 uuH_11                -2.819009e-05 1 1  ON 103
 uuH_12                -1.865671e-07 1 1  ON 104
 uuH_13                -3.905787e-05 1 1  ON 105
 uuH_14                 3.028326e-06 1 1  ON 106
 uuH_15                -2.240714e-07 1 1  ON 107
 uuH_16                -6.644352e-05 1 1  ON 108
 uuH_17                -1.916631e-05 1 1  ON 109
 uuH_18                 2.156279e-05 1 1  ON 110
 uuH_19                -1.563325e-06 1 1  ON 111
 uuH_20                 1.752122e-05 1 1  ON 112
 uuH_21                -3.822474e-06 1 1  ON 113
 uuH_22                 4.962285e-07 1 1  ON 114
 uuH_23                -1.833008e-06 1 1  ON 115
 uuH_24                 7.056320e-07 1 1  ON 116
 uuH_25                -1.253671e-07 1 1  ON 117
  udH_0                -8.648437e-06 1 1  ON 118
  udH_1                 4.982817e-06 1 1  ON 119
  udH_2                -2.839831e-06 1 1  ON 120
  udH_3                -9.177155e-06 1 1  ON 121
  udH_4                -4.989909e-06 1 1  ON 122
  udH_5                 1.210854e-05 1 1  ON 123
  udH_6                 8.472357e-06 1 1  ON 124
  udH_7                 1.965468e-06 1 1  ON 125
  udH_8                 6.167159e-07 1 1  ON 126
  udH_9                 2.083317e-06 1 1  ON 127
 udH_10                -1.466548e-05 1 1  ON 128
 udH_11                 6.923308e-06 1 1  ON 129
 udH_12                -1.881834e-06 1 1  ON 130
 udH_13                 3.904374e-06 1 1  ON 131
 udH_14                 3.009810e-07 1 1  ON 132
 udH_15                 1.265054e-07 1 1  ON 133
 udH_16                 2.342737e-05 1 1  ON 134
 udH_17                 2.708326e-06 1 1  ON 135
 udH_18                -6.629559e-06 1 1  ON 136
 udH_19                 1.541414e-06 1 1  ON 137
 udH_20                -7.519905e-06 1 1  ON 138
 udH_21                 1.326417e-06 1 1  ON 139
 udH_22                -2.589616e-07 1 1  ON 140
 udH_23                 3.933762e-06 1 1  ON 141
 udH_24                -6.502891e-07 1 1  ON 142
 udH_25                 9.500327e-08 1 1  ON 143
  </optVariables>
   Restore the number of walkers to 21, removing 0 walkers.
</opt>
</optimization-report>
  QMC Execution time = 1.133 secs

=========================================================
  Start QMCFixedSampleLinearOptimize
  File Root qmc.s004 append = no 
=========================================================
  Skip QMCDriver::putQMCInfo 
  Resetting Properties of the walkers 1 x 14

=========================================================
  Start VMC
  File Root qmc.s004 append = no 
=========================================================
Using existing walkers 
  Resetting Properties of the walkers 1 x 14

<vmc function="put">
  qmc_counter=3  my_counter=0
  time step      = 0.5
  blocks         = 20
  steps          = 20
  substeps       = 4
  current        = 0
  target samples = 1.6e+04
  walkers/mpi    = 21

  stepsbetweensamples = 1
  SpinMoves      = no
<parameter name="blocks" condition="int">20</parameter>
<parameter name="blocks_between_recompute" condition="int">0</parameter>
<parameter name="check_properties" condition="int">100</parameter>
<parameter name="checkproperties" condition="int">100</parameter>
<parameter name="current" condition="int">0</parameter>
<parameter name="dmcwalkersperthread" condition="real">381</parameter>
<parameter name="maxcpusecs" condition="real">3.6e+05</parameter>
<parameter name="record_configs" condition="int">0</parameter>
<parameter name="record_walkers" condition="int">1</parameter>
<parameter name="recordconfigs" condition="int">0</parameter>
<parameter name="recordwalkers" condition="int">1</parameter>
<parameter name="rewind" condition="int">0</parameter>
<parameter name="samples" condition="real">1.6e+04</parameter>
<parameter name="samplesperthread" condition="real">381</parameter>
<parameter name="spinmass" condition="double">1</parameter>
<parameter name="spinmoves" condition="string">no</parameter>
<parameter name="steps" condition="int">20</parameter>
<parameter name="stepsbetweensamples" condition="int">1</parameter>
<parameter name="store_configs" condition="int">0</parameter>
<parameter name="storeconfigs" condition="int">0</parameter>
<parameter name="sub_steps" condition="int">4</parameter>
<parameter name="substeps" condition="int">4</parameter>
<parameter name="tau" condition="au">0.5</parameter>
<parameter name="time_step" condition="au">0.5</parameter>
<parameter name="timestep" condition="au">0.5</parameter>
<parameter name="use_drift" condition="string">no</parameter>
<parameter name="usedrift" condition="string">no</parameter>
<parameter name="walkers" condition="int">1</parameter>
<parameter name="warmup_steps" condition="int">100</parameter>
<parameter name="warmupsteps" condition="int">100</parameter>
  DumpConfig==false Nothing (configurations, state) will be saved.
  Walker Samples are dumped every 1 steps.
</vmc>
    Restarting, cummulative properties:
      energy     = -6.173
      variance   = 0
      r2accepted = 1e-10
      r2proposed = 1e-10
  Set drift_modifier UNR parameter a = 1
 Using QMCCostFunction::QMCCostFunction
 Using Default Cost Function: Cost = <|E-E_ff|^2>
  Set drift_modifier UNR parameter a = 1.0000e+00
  EstimatorManagerBase::add replace LocalEnergy estimator.
<optimization-report>
<vmc stage="main" blocks="20">
  Cannot make clones again. Use existing 21 clones
  Initial partition of walkers 0 1 2 3 4 5 6 7 8 9 10 11 12 13 14 15 16 17 18 19 20 21 

  Using Particle by Particle moves
  Walker moves without drift
  Total Sample Size   =16002
  Walker distribution on root = 0 1 2 3 4 5 6 7 8 9 10 11 12 13 14 15 16 17 18 19 20 21 
  Using Locality Approximation
===== Memory Usage after the buffer registration =====
Available memory on node 0, free + buffers : 571856 MB
Memory footprint by rank 0 on node 0       : 182 MB
==================================================
  Anonymous Buffer size per walker : 19168 Bytes.
MEMORY increase 0 MB VMC::resetRun
====================================================
  SimpleFixedNodeBranch::finalize after a VMC block
    QMC counter        = 4
    time step          = 0.5
    reference energy   = -6.22215
    reference variance = 0.0718709
====================================================
  Execution time = 5.1432e-01
</vmc>
<opt stage="setup">
  <log>
   Reading configurations from h5FileRoot qmc.s004
  QMCCostFunction is created with 21 threads.
  Using Nonlocal PP in Opt: no
   Number of samples loaded to each thread : 381 381 381 381 381 381 381 381 381 381 381 381 381 381 381 381 381 381 381 381 381 
  VMC Eavg = -6.2786e+00
  VMC Evar = 1.8465e-01
  Total weights = 1.6002e+04
  Execution time = 3.8511e-01
  </log>
</opt>
<opt stage="main" walkers="16002">
  <log>

*****************************************
Building overlap and Hamiltonian matrices
*****************************************

Among totally 144 optimized parameters, largest LM parameter change : 9.6170e-02 at parameter 10

******************************************************************************
Init Cost =  -5.6323e+00    New Cost =  -5.6344e+00  Delta Cost =  -2.0899e-03
******************************************************************************

The new set of parameters is valid. Updating the trial wave function!

*****************************************************************************
Applying the update for shift_i =   1.0000e-02     and shift_s =   3.9062e-03
*****************************************************************************
  Execution time = 1.0801e+00
  </log>
  <optVariables href="qmc.s004.opt.xml">
   uu_0                 1.913576e-01 1 1  ON 0
   uu_1                 1.410211e-01 1 1  ON 1
   uu_2                 9.588342e-02 1 1  ON 2
   uu_3                 6.941265e-02 1 1  ON 3
   uu_4                 3.395362e-02 1 1  ON 4
   uu_5                -1.024885e-02 1 1  ON 5
   uu_6                -4.741170e-02 1 1  ON 6
   uu_7                -7.104737e-02 1 1  ON 7
   uu_8                -7.656264e-02 1 1  ON 8
   uu_9                -6.800867e-02 1 1  ON 9
   ud_0                 5.774482e-01 1 1  ON 10
   ud_1                 3.151392e-01 1 1  ON 11
   ud_2                 1.896660e-01 1 1  ON 12
   ud_3                 1.141530e-01 1 1  ON 13
   ud_4                 5.727095e-02 1 1  ON 14
   ud_5                -1.463694e-03 1 1  ON 15
   ud_6                -4.910915e-02 1 1  ON 16
   ud_7                -8.716987e-02 1 1  ON 17
   ud_8                -1.060182e-01 1 1  ON 18
   ud_9                -1.096700e-01 1 1  ON 19
  eSi_0                -1.284922e-01 1 1  ON 20
  eSi_1                -1.828838e-01 1 1  ON 21
  eSi_2                -1.761537e-01 1 1  ON 22
  eSi_3                 1.412786e-02 1 1  ON 23
  eSi_4                 1.306849e-01 1 1  ON 24
  eSi_5                -1.919128e-02 1 1  ON 25
  eSi_6                 6.791835e-02 1 1  ON 26
  eSi_7                 1.348950e-01 1 1  ON 27
  eSi_8                 1.383780e-01 1 1  ON 28
  eSi_9                 1.211746e-02 1 1  ON 29
   eH_0                -4.374576e-01 1 1  ON 30
   eH_1                -3.311206e-01 1 1  ON 31
   eH_2                -2.300912e-01 1 1  ON 32
   eH_3                -1.092044e-01 1 1  ON 33
   eH_4                -1.669900e-02 1 1  ON 34
   eH_5                 4.199381e-02 1 1  ON 35
   eH_6                 1.082036e-01 1 1  ON 36
   eH_7                 1.844722e-01 1 1  ON 37
   eH_8                 1.927409e-01 1 1  ON 38
   eH_9                 1.509864e-01 1 1  ON 39
 uuSi_0                 1.362045e-05 1 1  ON 40
 uuSi_1                -6.377192e-05 1 1  ON 41
 uuSi_2                -5.962093e-05 1 1  ON 42
 uuSi_3                 3.340932e-05 1 1  ON 43
 uuSi_4                 2.211733e-06 1 1  ON 44
 uuSi_5                 9.798046e-06 1 1  ON 45
 uuSi_6                -1.351824e-04 1 1  ON 46
 uuSi_7                 1.228763e-04 1 1  ON 47
 uuSi_8                -3.753509e-05 1 1  ON 48
 uuSi_9                 4.616581e-05 1 1  ON 49
uuSi_10                 1.049647e-06 1 1  ON 50
uuSi_11                -5.867032e-06 1 1  ON 51
uuSi_12                 6.722499e-06 1 1  ON 52
uuSi_13                -3.771606e-05 1 1  ON 53
uuSi_14                 1.983143e-06 1 1  ON 54
uuSi_15                -8.615985e-07 1 1  ON 55
uuSi_16                -2.549884e-05 1 1  ON 56
uuSi_17                -9.547809e-06 1 1  ON 57
uuSi_18                 5.639280e-06 1 1  ON 58
uuSi_19                -2.835325e-06 1 1  ON 59
uuSi_20                 1.231168e-05 1 1  ON 60
uuSi_21                -2.070048e-06 1 1  ON 61
uuSi_22                 6.625039e-07 1 1  ON 62
uuSi_23                -1.187171e-06 1 1  ON 63
uuSi_24                 3.493378e-07 1 1  ON 64
uuSi_25                -1.462875e-07 1 1  ON 65
 udSi_0                -6.089927e-06 1 1  ON 66
 udSi_1                 1.907863e-04 1 1  ON 67
 udSi_2                 6.327516e-05 1 1  ON 68
 udSi_3                -1.274481e-05 1 1  ON 69
 udSi_4                -1.513198e-05 1 1  ON 70
 udSi_5                -1.870769e-05 1 1  ON 71
 udSi_6                 3.090113e-04 1 1  ON 72
 udSi_7                 6.437718e-06 1 1  ON 73
 udSi_8                 3.012278e-05 1 1  ON 74
 udSi_9                -2.406765e-04 1 1  ON 75
udSi_10                -2.529283e-05 1 1  ON 76
udSi_11                -2.518742e-05 1 1  ON 77
udSi_12                -5.472191e-06 1 1  ON 78
udSi_13                 1.251695e-05 1 1  ON 79
udSi_14                 2.656160e-06 1 1  ON 80
udSi_15                -2.233413e-08 1 1  ON 81
udSi_16                 2.846786e-04 1 1  ON 82
udSi_17                -3.367505e-05 1 1  ON 83
udSi_18                 1.025279e-05 1 1  ON 84
udSi_19                 5.299962e-07 1 1  ON 85
udSi_20                -4.789281e-05 1 1  ON 86
udSi_21                 8.565855e-07 1 1  ON 87
udSi_22                 5.626324e-08 1 1  ON 88
udSi_23                 1.127797e-05 1 1  ON 89
udSi_24                -6.991641e-07 1 1  ON 90
udSi_25                -4.284585e-10 1 1  ON 91
  uuH_0                -2.645454e-05 1 1  ON 92
  uuH_1                -4.556272e-05 1 1  ON 93
  uuH_2                 2.279969e-06 1 1  ON 94
  uuH_3                 2.270525e-05 1 1  ON 95
  uuH_4                 2.682769e-06 1 1  ON 96
  uuH_5                 8.995819e-06 1 1  ON 97
  uuH_6                -7.624333e-05 1 1  ON 98
  uuH_7                 6.323628e-05 1 1  ON 99
  uuH_8                -4.251392e-06 1 1  ON 100
  uuH_9                 6.779601e-05 1 1  ON 101
 uuH_10                 1.758191e-05 1 1  ON 102
 uuH_11                -2.583698e-05 1 1  ON 103
 uuH_12                 3.245315e-06 1 1  ON 104
 uuH_13                -3.884211e-05 1 1  ON 105
 uuH_14                -6.549247e-07 1 1  ON 106
 uuH_15                -1.924950e-07 1 1  ON 107
 uuH_16                -4.284878e-05 1 1  ON 108
 uuH_17                -3.231417e-05 1 1  ON 109
 uuH_18                 2.341346e-05 1 1  ON 110
 uuH_19                -3.158494e-06 1 1  ON 111
 uuH_20                 1.528446e-05 1 1  ON 112
 uuH_21                -3.013250e-06 1 1  ON 113
 uuH_22                 5.295052e-07 1 1  ON 114
 uuH_23                -1.308809e-06 1 1  ON 115
 uuH_24                 4.739754e-07 1 1  ON 116
 uuH_25                -1.034882e-07 1 1  ON 117
  udH_0                -3.580416e-06 1 1  ON 118
  udH_1                -5.523723e-06 1 1  ON 119
  udH_2                -9.218826e-06 1 1  ON 120
  udH_3                -6.621834e-06 1 1  ON 121
  udH_4                -1.691566e-06 1 1  ON 122
  udH_5                 1.161701e-05 1 1  ON 123
  udH_6                -1.861484e-05 1 1  ON 124
  udH_7                 3.281107e-07 1 1  ON 125
  udH_8                -2.019561e-06 1 1  ON 126
  udH_9                 1.935376e-05 1 1  ON 127
 udH_10                -8.055016e-06 1 1  ON 128
 udH_11                 7.783672e-06 1 1  ON 129
 udH_12                -1.644107e-06 1 1  ON 130
 udH_13                 1.568448e-06 1 1  ON 131
 udH_14                 1.173517e-06 1 1  ON 132
 udH_15                 3.202247e-08 1 1  ON 133
 udH_16                -5.237863e-06 1 1  ON 134
 udH_17                 8.177061e-06 1 1  ON 135
 udH_18                -6.894403e-06 1 1  ON 136
 udH_19                 1.662119e-06 1 1  ON 137
 udH_20                -2.055658e-06 1 1  ON 138
 udH_21                 4.880716e-07 1 1  ON 139
 udH_22                -1.530763e-07 1 1  ON 140
 udH_23                 2.450997e-06 1 1  ON 141
 udH_24                -3.278410e-07 1 1  ON 142
 udH_25                 4.398683e-08 1 1  ON 143
  </optVariables>
   Restore the number of walkers to 21, removing 0 walkers.
</opt>
</optimization-report>
  QMC Execution time = 1.083 secs
Loop execution max-interations = 10
BRANCH resetRun
  Continue with the same input as the previous block.
 SimpleFixedNodeBranch::resetRun detected changes in <parameter>'s 
 BranchMode : 0000001100 0000001100
 iParam (old):                100                 1                 4                 0                42                42                 1                 0
 iParam (new):                100                 1                 4                 0                42                42                 1                 0
 vParam (old):                0.5               0.5      -6.143954247      -6.143954247                 1                 1                 1                 1      0.4948598818      -6.143954247                 1                 1                10                 1                 1                 1                 1
 vParam (new):                0.5               0.5      -6.143954247      -6.143954247                 1                 1                 1                 1      0.4948598818      -6.143954247                 1                 1                10                 1                 1                 1                 1

=========================================================
  Start QMCFixedSampleLinearOptimize
  File Root qmc.s005 append = no 
=========================================================
  Skip QMCDriver::putQMCInfo 
  Resetting Properties of the walkers 1 x 14

=========================================================
  Start VMC
  File Root qmc.s005 append = no 
=========================================================
Resetting walkers
  Using the current 21 walkers.
  Total number of walkers: 42
  Total weight: 42
  Resetting Properties of the walkers 1 x 14

<vmc function="put">
  qmc_counter=0  my_counter=0
  time step      = 0.5
  blocks         = 20
  steps          = 77
  substeps       = 4
  current        = 0
  target samples = 64000
  walkers/mpi    = 21

  stepsbetweensamples = 1
  SpinMoves      = no
<parameter name="blocks" condition="int">20</parameter>
<parameter name="blocks_between_recompute" condition="int">0</parameter>
[...]
udSi_19                 1.784056e-06 1 1  ON 85
udSi_20                -1.925838e-06 1 1  ON 86
udSi_21                 6.660787e-06 1 1  ON 87
udSi_22                -6.909738e-07 1 1  ON 88
udSi_23                -8.417901e-07 1 1  ON 89
udSi_24                -1.391330e-06 1 1  ON 90
udSi_25                 1.678816e-07 1 1  ON 91
  uuH_0                -3.557164e-05 1 1  ON 92
  uuH_1                -6.398946e-05 1 1  ON 93
  uuH_2                 1.718904e-06 1 1  ON 94
  uuH_3                 2.812498e-05 1 1  ON 95
  uuH_4                 2.514439e-06 1 1  ON 96
  uuH_5                 7.227548e-06 1 1  ON 97
  uuH_6                -7.686604e-05 1 1  ON 98
  uuH_7                 2.773809e-05 1 1  ON 99
  uuH_8                -4.670818e-06 1 1  ON 100
  uuH_9                 9.391079e-05 1 1  ON 101
 uuH_10                 1.746579e-05 1 1  ON 102
 uuH_11                -7.291812e-06 1 1  ON 103
 uuH_12                -7.939235e-07 1 1  ON 104
 uuH_13                -4.571609e-05 1 1  ON 105
 uuH_14                 6.065631e-07 1 1  ON 106
 uuH_15                 5.679383e-08 1 1  ON 107
 uuH_16                -7.929736e-05 1 1  ON 108
 uuH_17                -1.979945e-05 1 1  ON 109
 uuH_18                 9.921141e-06 1 1  ON 110
 uuH_19                 5.326244e-07 1 1  ON 111
 uuH_20                 2.466871e-05 1 1  ON 112
 uuH_21                -2.637724e-06 1 1  ON 113
 uuH_22                 1.683401e-07 1 1  ON 114
 uuH_23                -4.373516e-06 1 1  ON 115
 uuH_24                 6.700569e-07 1 1  ON 116
 uuH_25                -8.348898e-08 1 1  ON 117
  udH_0                -7.147622e-06 1 1  ON 118
  udH_1                -8.191802e-06 1 1  ON 119
  udH_2                -4.935325e-06 1 1  ON 120
  udH_3                -2.838283e-06 1 1  ON 121
  udH_4                -6.610102e-07 1 1  ON 122
  udH_5                 8.119350e-06 1 1  ON 123
  udH_6                -1.130219e-05 1 1  ON 124
  udH_7                -1.056087e-06 1 1  ON 125
  udH_8                -8.630327e-06 1 1  ON 126
  udH_9                 1.909891e-05 1 1  ON 127
 udH_10                -4.112153e-06 1 1  ON 128
 udH_11                 8.919214e-06 1 1  ON 129
 udH_12                 1.089865e-06 1 1  ON 130
 udH_13                -9.908601e-06 1 1  ON 131
 udH_14                -2.257808e-06 1 1  ON 132
 udH_15                 1.026617e-07 1 1  ON 133
 udH_16                -1.289330e-06 1 1  ON 134
 udH_17                -8.261200e-06 1 1  ON 135
 udH_18                -3.578982e-06 1 1  ON 136
 udH_19                 1.919100e-07 1 1  ON 137
 udH_20                 2.404498e-06 1 1  ON 138
 udH_21                 7.768776e-07 1 1  ON 139
 udH_22                -8.740993e-08 1 1  ON 140
 udH_23                 8.423368e-07 1 1  ON 141
 udH_24                -2.560228e-07 1 1  ON 142
 udH_25                 2.841158e-08 1 1  ON 143
  </optVariables>
   Restore the number of walkers to 21, removing 0 walkers.
</opt>
</optimization-report>
  QMC Execution time = 3.757 secs

=========================================================
  Start QMCFixedSampleLinearOptimize
  File Root qmc.s014 append = no 
=========================================================
  Skip QMCDriver::putQMCInfo 
  Resetting Properties of the walkers 1 x 14

=========================================================
  Start VMC
  File Root qmc.s014 append = no 
=========================================================
Using existing walkers 
  Resetting Properties of the walkers 1 x 14

<vmc function="put">
  qmc_counter=9  my_counter=0
  time step      = 0.5
  blocks         = 20
  steps          = 77
  substeps       = 4
  current        = 0
  target samples = 6.4e+04
  walkers/mpi    = 21

  stepsbetweensamples = 1
  SpinMoves      = no
<parameter name="blocks" condition="int">20</parameter>
<parameter name="blocks_between_recompute" condition="int">0</parameter>
<parameter name="check_properties" condition="int">100</parameter>
<parameter name="checkproperties" condition="int">100</parameter>
<parameter name="current" condition="int">0</parameter>
<parameter name="dmcwalkersperthread" condition="real">1524</parameter>
<parameter name="maxcpusecs" condition="real">3.6e+05</parameter>
<parameter name="record_configs" condition="int">0</parameter>
<parameter name="record_walkers" condition="int">1</parameter>
<parameter name="recordconfigs" condition="int">0</parameter>
<parameter name="recordwalkers" condition="int">1</parameter>
<parameter name="rewind" condition="int">0</parameter>
<parameter name="samples" condition="real">6.4e+04</parameter>
<parameter name="samplesperthread" condition="real">1524</parameter>
<parameter name="spinmass" condition="double">1</parameter>
<parameter name="spinmoves" condition="string">no</parameter>
<parameter name="steps" condition="int">77</parameter>
<parameter name="stepsbetweensamples" condition="int">1</parameter>
<parameter name="store_configs" condition="int">0</parameter>
<parameter name="storeconfigs" condition="int">0</parameter>
<parameter name="sub_steps" condition="int">4</parameter>
<parameter name="substeps" condition="int">4</parameter>
<parameter name="tau" condition="au">0.5</parameter>
<parameter name="time_step" condition="au">0.5</parameter>
<parameter name="timestep" condition="au">0.5</parameter>
<parameter name="use_drift" condition="string">no</parameter>
<parameter name="usedrift" condition="string">no</parameter>
<parameter name="walkers" condition="int">1</parameter>
<parameter name="warmup_steps" condition="int">100</parameter>
<parameter name="warmupsteps" condition="int">100</parameter>
  DumpConfig==false Nothing (configurations, state) will be saved.
  Walker Samples are dumped every 1 steps.
</vmc>
    Restarting, cummulative properties:
      energy     = -6.242
      variance   = 0
      r2accepted = 1e-10
      r2proposed = 1e-10
  Set drift_modifier UNR parameter a = 1
 Using QMCCostFunction::QMCCostFunction
 Using Default Cost Function: Cost = <|E-E_ff|^2>
  Set drift_modifier UNR parameter a = 1.0000e+00
  EstimatorManagerBase::add replace LocalEnergy estimator.
<optimization-report>
<vmc stage="main" blocks="20">
  Cannot make clones again. Use existing 21 clones
  Initial partition of walkers 0 1 2 3 4 5 6 7 8 9 10 11 12 13 14 15 16 17 18 19 20 21 

  Using Particle by Particle moves
  Walker moves without drift
  Total Sample Size   =64008
  Walker distribution on root = 0 1 2 3 4 5 6 7 8 9 10 11 12 13 14 15 16 17 18 19 20 21 
  Using Locality Approximation
===== Memory Usage after the buffer registration =====
Available memory on node 0, free + buffers : 571677 MB
Memory footprint by rank 0 on node 0       : 259 MB
==================================================
  Anonymous Buffer size per walker : 19168 Bytes.
MEMORY increase 0 MB VMC::resetRun
====================================================
  SimpleFixedNodeBranch::finalize after a VMC block
    QMC counter        = 14
    time step          = 0.5
    reference energy   = -6.23544
    reference variance = 0.0415755
====================================================
  Execution time = 1.6007e+00
</vmc>
<opt stage="setup">
  <log>
   Reading configurations from h5FileRoot qmc.s014
  QMCCostFunction is created with 21 threads.
  Using Nonlocal PP in Opt: no
   Number of samples loaded to each thread : 1524 1524 1524 1524 1524 1524 1524 1524 1524 1524 1524 1524 1524 1524 1524 1524 1524 1524 1524 1524 1524 
  VMC Eavg = -6.2806e+00
  VMC Evar = 3.1392e-01
  Total weights = 6.4008e+04
  Execution time = 1.4907e+00
  </log>
</opt>
<opt stage="main" walkers="64008">
  <log>

*****************************************
Building overlap and Hamiltonian matrices
*****************************************

Among totally 144 optimized parameters, largest LM parameter change : 2.7631e-02 at parameter 38

******************************************************************************
Init Cost =  -5.6212e+00    New Cost =  -5.6219e+00  Delta Cost =  -6.7130e-04
******************************************************************************

The new set of parameters is valid. Updating the trial wave function!

*****************************************************************************
Applying the update for shift_i =   1.0000e-02     and shift_s =   3.9062e-03
*****************************************************************************
  Execution time = 3.7510e+00
  </log>
  <optVariables href="qmc.s014.opt.xml">
   uu_0                 4.316439e-01 1 1  ON 0
   uu_1                 3.006438e-01 1 1  ON 1
   uu_2                 2.108685e-01 1 1  ON 2
   uu_3                 1.438134e-01 1 1  ON 3
   uu_4                 8.906903e-02 1 1  ON 4
   uu_5                 4.389562e-02 1 1  ON 5
   uu_6                 4.264185e-03 1 1  ON 6
   uu_7                -2.825883e-02 1 1  ON 7
   uu_8                -4.463206e-02 1 1  ON 8
   uu_9                -5.904125e-02 1 1  ON 9
   ud_0                 8.589692e-01 1 1  ON 10
   ud_1                 5.542511e-01 1 1  ON 11
   ud_2                 3.651994e-01 1 1  ON 12
   ud_3                 2.347770e-01 1 1  ON 13
   ud_4                 1.500042e-01 1 1  ON 14
   ud_5                 8.589048e-02 1 1  ON 15
   ud_6                 3.959816e-02 1 1  ON 16
   ud_7                 1.756177e-03 1 1  ON 17
   ud_8                -2.681307e-02 1 1  ON 18
   ud_9                -4.048994e-02 1 1  ON 19
  eSi_0                -3.640016e-01 1 1  ON 20
  eSi_1                -1.608278e-01 1 1  ON 21
  eSi_2                -1.368095e-01 1 1  ON 22
  eSi_3                -2.199797e-02 1 1  ON 23
  eSi_4                 2.925443e-02 1 1  ON 24
  eSi_5                -3.080045e-02 1 1  ON 25
  eSi_6                 8.695141e-03 1 1  ON 26
  eSi_7                 1.225022e-01 1 1  ON 27
  eSi_8                 2.555518e-01 1 1  ON 28
  eSi_9                 1.148747e-01 1 1  ON 29
   eH_0                -6.622035e-01 1 1  ON 30
   eH_1                -5.517478e-01 1 1  ON 31
   eH_2                -4.230166e-01 1 1  ON 32
   eH_3                -2.744919e-01 1 1  ON 33
   eH_4                -1.464149e-01 1 1  ON 34
   eH_5                -3.714289e-02 1 1  ON 35
   eH_6                 5.963201e-02 1 1  ON 36
   eH_7                 1.614205e-01 1 1  ON 37
   eH_8                 1.829282e-01 1 1  ON 38
   eH_9                 1.260273e-01 1 1  ON 39
 uuSi_0                -1.898431e-05 1 1  ON 40
 uuSi_1                -5.468462e-05 1 1  ON 41
 uuSi_2                -7.108331e-06 1 1  ON 42
 uuSi_3                 7.527915e-05 1 1  ON 43
 uuSi_4                 4.751225e-06 1 1  ON 44
 uuSi_5                 1.004962e-05 1 1  ON 45
 uuSi_6                -4.335238e-05 1 1  ON 46
 uuSi_7                 8.548360e-05 1 1  ON 47
 uuSi_8                -2.213685e-05 1 1  ON 48
 uuSi_9                 1.517289e-05 1 1  ON 49
uuSi_10                 3.486383e-05 1 1  ON 50
uuSi_11                -3.692773e-05 1 1  ON 51
uuSi_12                 6.550856e-06 1 1  ON 52
uuSi_13                -7.117931e-05 1 1  ON 53
uuSi_14                -1.787561e-06 1 1  ON 54
uuSi_15                -4.374618e-07 1 1  ON 55
uuSi_16                 1.391273e-05 1 1  ON 56
uuSi_17                -7.167346e-05 1 1  ON 57
uuSi_18                 3.949368e-05 1 1  ON 58
uuSi_19                -4.926329e-06 1 1  ON 59
uuSi_20                 1.758442e-05 1 1  ON 60
uuSi_21                -4.958288e-06 1 1  ON 61
uuSi_22                 8.610698e-07 1 1  ON 62
uuSi_23                -2.133723e-06 1 1  ON 63
uuSi_24                 8.339521e-07 1 1  ON 64
uuSi_25                -1.811419e-07 1 1  ON 65
 udSi_0                -4.130290e-05 1 1  ON 66
 udSi_1                 1.666964e-04 1 1  ON 67
 udSi_2                 6.030992e-05 1 1  ON 68
 udSi_3                 3.550358e-06 1 1  ON 69
 udSi_4                -1.152368e-05 1 1  ON 70
 udSi_5                -2.009753e-05 1 1  ON 71
 udSi_6                 3.052351e-04 1 1  ON 72
 udSi_7                -4.337026e-05 1 1  ON 73
 udSi_8                 7.551603e-07 1 1  ON 74
 udSi_9                -1.741880e-04 1 1  ON 75
udSi_10                -2.179422e-05 1 1  ON 76
udSi_11                 2.062010e-05 1 1  ON 77
udSi_12                -7.318599e-07 1 1  ON 78
udSi_13                -2.106103e-05 1 1  ON 79
udSi_14                -8.237023e-06 1 1  ON 80
udSi_15                 6.394636e-07 1 1  ON 81
udSi_16                 2.132796e-04 1 1  ON 82
udSi_17                -4.486853e-05 1 1  ON 83
udSi_18                -1.677272e-05 1 1  ON 84
udSi_19                 2.093256e-06 1 1  ON 85
udSi_20                -2.423858e-05 1 1  ON 86
udSi_21                 6.053829e-06 1 1  ON 87
udSi_22                -7.654451e-07 1 1  ON 88
udSi_23                 5.399687e-06 1 1  ON 89
udSi_24                -1.478484e-06 1 1  ON 90
udSi_25                 1.991708e-07 1 1  ON 91
  uuH_0                -4.311296e-05 1 1  ON 92
  uuH_1                -5.257892e-05 1 1  ON 93
  uuH_2                 7.524170e-06 1 1  ON 94
  uuH_3                 2.778783e-05 1 1  ON 95
  uuH_4                 1.498536e-06 1 1  ON 96
  uuH_5                 3.182007e-06 1 1  ON 97
  uuH_6                -5.858880e-05 1 1  ON 98
  uuH_7                 2.622843e-05 1 1  ON 99
  uuH_8                -1.909656e-06 1 1  ON 100
  uuH_9                 9.440629e-05 1 1  ON 101
 uuH_10                 1.644893e-05 1 1  ON 102
 uuH_11                -6.544834e-06 1 1  ON 103
 uuH_12                -1.792639e-06 1 1  ON 104
 uuH_13                -4.834624e-05 1 1  ON 105
 uuH_14                 1.355421e-06 1 1  ON 106
 uuH_15                 6.211990e-08 1 1  ON 107
 uuH_16                -8.871626e-05 1 1  ON 108
 uuH_17                -1.736093e-05 1 1  ON 109
 uuH_18                 8.405297e-06 1 1  ON 110
 uuH_19                 1.045106e-06 1 1  ON 111
 uuH_20                 2.802827e-05 1 1  ON 112
 uuH_21                -2.834318e-06 1 1  ON 113
 uuH_22                 1.619776e-07 1 1  ON 114
 uuH_23                -5.373467e-06 1 1  ON 115
 uuH_24                 7.618430e-07 1 1  ON 116
 uuH_25                -9.457902e-08 1 1  ON 117
  udH_0                -8.905176e-06 1 1  ON 118
  udH_1                -6.697716e-06 1 1  ON 119
  udH_2                -1.081199e-06 1 1  ON 120
  udH_3                -3.232204e-06 1 1  ON 121
  udH_4                -1.511869e-06 1 1  ON 122
  udH_5                 7.739441e-06 1 1  ON 123
  udH_6                -5.580202e-06 1 1  ON 124
  udH_7                 5.353177e-07 1 1  ON 125
  udH_8                -4.532519e-06 1 1  ON 126
  udH_9                 1.547749e-05 1 1  ON 127
 udH_10                -4.697311e-06 1 1  ON 128
 udH_11                 6.440150e-06 1 1  ON 129
 udH_12                -1.820678e-07 1 1  ON 130
 udH_13                -9.452200e-06 1 1  ON 131
 udH_14                -1.258853e-06 1 1  ON 132
 udH_15                 1.325924e-07 1 1  ON 133
 udH_16                 4.195311e-06 1 1  ON 134
 udH_17                -6.978638e-06 1 1  ON 135
 udH_18                -4.170014e-06 1 1  ON 136
 udH_19                 9.924564e-07 1 1  ON 137
 udH_20                 1.176218e-06 1 1  ON 138
 udH_21                 9.261686e-07 1 1  ON 139
 udH_22                -2.033486e-07 1 1  ON 140
 udH_23                 1.077600e-06 1 1  ON 141
 udH_24                -3.447773e-07 1 1  ON 142
 udH_25                 5.801606e-08 1 1  ON 143
  </optVariables>
   Restore the number of walkers to 21, removing 0 walkers.
</opt>
</optimization-report>
  QMC Execution time = 3.755 secs
BRANCH resetRun
  Continue with the same input as the previous block.
 SimpleFixedNodeBranch::resetRun detected changes in <parameter>'s 
 BranchMode : 0000001100 0000001100
 iParam (old):                100                 1                14                 0                42                42                 1                 0
 iParam (new):                100                 1                14                 0                42                42                 1                 0
 vParam (old):                0.5               0.5      -6.143954247      -6.143954247                 1                 1                 1                 1      0.4948598818      -6.143954247                 1                 1                10                 1                 1                 1                 1
 vParam (new):                0.5               0.5      -6.143954247      -6.143954247                 1                 1                 1                 1      0.4948598818      -6.143954247                 1                 1                10                 1                 1                 1                 1

=========================================================
  Start VMC
  File Root qmc.s015 append = no 
=========================================================
Resetting walkers
  Using the current 21 walkers.
  Total number of walkers: 42
  Total weight: 42
  Resetting Properties of the walkers 1 x 14

<vmc function="put">
  qmc_counter=0  my_counter=0
  time step      = 0.5
  blocks         = 200
  steps          = 50
  substeps       = 8
  current        = 0
  target samples = 16000
  walkers/mpi    = 21

  stepsbetweensamples = 26
  SpinMoves      = no
<parameter name="blocks" condition="int">200</parameter>
<parameter name="blocks_between_recompute" condition="int">0</parameter>
<parameter name="check_properties" condition="int">100</parameter>
<parameter name="checkproperties" condition="int">100</parameter>
<parameter name="current" condition="int">0</parameter>
<parameter name="dmcwalkersperthread" condition="real">381</parameter>
<parameter name="maxcpusecs" condition="real">360000</parameter>
<parameter name="record_configs" condition="int">0</parameter>
<parameter name="record_walkers" condition="int">26</parameter>
<parameter name="recordconfigs" condition="int">0</parameter>
<parameter name="recordwalkers" condition="int">26</parameter>
<parameter name="rewind" condition="int">0</parameter>
<parameter name="samples" condition="real">16000</parameter>
<parameter name="samplesperthread" condition="real">381</parameter>
<parameter name="spinmass" condition="double">1</parameter>
<parameter name="spinmoves" condition="string">no</parameter>
<parameter name="steps" condition="int">50</parameter>
<parameter name="stepsbetweensamples" condition="int">26</parameter>
<parameter name="store_configs" condition="int">0</parameter>
<parameter name="storeconfigs" condition="int">0</parameter>
<parameter name="sub_steps" condition="int">8</parameter>
<parameter name="substeps" condition="int">8</parameter>
<parameter name="tau" condition="au">0.5</parameter>
<parameter name="time_step" condition="au">0.5</parameter>
<parameter name="timestep" condition="au">0.5</parameter>
<parameter name="use_drift" condition="string">no</parameter>
<parameter name="usedrift" condition="string">no</parameter>
<parameter name="walkers" condition="int">21</parameter>
<parameter name="warmup_steps" condition="int">100</parameter>
<parameter name="warmupsteps" condition="int">100</parameter>
  DumpConfig==false Nothing (configurations, state) will be saved.
  Walker Samples are dumped every 26 steps.
</vmc>
  Set drift_modifier UNR parameter a = 1
  EstimatorManagerBase::add replace LocalEnergy estimator.
  Cannot make clones again. Use existing 21 clones
  Initial partition of walkers 0 1 2 3 4 5 6 7 8 9 10 11 12 13 14 15 16 17 18 19 20 21 

  Using Particle by Particle moves
  Walker moves without drift
  Total Sample Size   =16002
  Walker distribution on root = 0 1 2 3 4 5 6 7 8 9 10 11 12 13 14 15 16 17 18 19 20 21 
  Using Locality Approximation
===== Memory Usage after the buffer registration =====
Available memory on node 0, free + buffers : 571677 MB
Memory footprint by rank 0 on node 0       : 259 MB
==================================================
  Anonymous Buffer size per walker : 19168 Bytes.
MEMORY increase 0 MB VMC::resetRun
