  Input file(s): qmc.qmc.in-wfj.xml 

=====================================================
                    QMCPACK 3.9.9

       (c) Copyright 2003-  QMCPACK developers

                    Please cite:
 J. Kim et al. J. Phys. Cond. Mat. 30 195901 (2018)
      https://doi.org/10.1088/1361-648X/aab9c3

  Git branch: develop
  Last git commit: 51afccc38c709a720e0a3b2699c25cdc16ac35ad
  Last git commit date: Thu Jun 11 17:49:55 2020 -0400
  Last git commit subject: Merge pull request #2531 from mmorale3/add_afqmc_hip
=====================================================
  Global options 

  Total number of MPI ranks = 16
  Number of MPI groups      = 1
  MPI group ID              = 0
  Number of ranks in group  = 16
  MPI ranks per node        = 2
  OMP 1st level threads     = 21
  OMP nested threading disabled or only 1 thread on the 2nd level

  Precision used in this calculation, see definitions in the manual:
  Base precision      = double
  Full precision      = double

  Structure-of-arrays (SoA) optimization enabled

  Input XML = qmc.qmc.in-wfj.xml

  Project = qmc
  date    = 2020-07-12 19:44:19 EDT
  host    = a01n09

 Random Number
 -------------
  Offset for the random number seeds based on time: 83

  Range of prime numbers to use as seeds over processors and threads = 439-2909


 Particle Set 
 ------------
  Name: ion0
  All the species have the same mass 1
  Particle set size: 5

 Particle Set 
 ------------
  Name: e
  All the species have the same mass 1
  Particle set size: 8

 Wavefunction setup: 
 ------------------- 
  Name: psi0
  LCAO: SoaAtomicBasisSet<MultiQuintic,1>
Reading BasisSet from HDF5 file:qmc.h5
<input node="atomicBasisSet" name="gaussian" expandYlm="pyscf" angular="spherical" elementType="Si" normalized="no" type="Numerical" expM="0" />
  AO BasisSet for Si
   Spherical Harmonics contain (-1)^m factor
   Angular momentum m expanded as -l, ... ,l, with the exception of L=1 (1,-1,0)
   Grid is created by the input paremters in h5
    Using log grid ri = 1e-06 rf = 100 npts = 1001
   R(n,l,m,s) 0 0 0 0
   R(n,l,m,s) 1 0 0 0
   R(n,l,m,s) 2 0 0 0
   R(n,l,m,s) 3 0 0 0
   R(n,l,m,s) 4 0 0 0
   R(n,l,m,s) 5 0 0 0
   R(n,l,m,s) 6 1 0 0
   R(n,l,m,s) 7 1 0 0
   R(n,l,m,s) 8 1 0 0
   R(n,l,m,s) 9 1 0 0
   R(n,l,m,s) 10 1 0 0
   R(n,l,m,s) 11 1 0 0
   R(n,l,m,s) 12 2 0 0
   R(n,l,m,s) 13 2 0 0
   R(n,l,m,s) 14 2 0 0
   R(n,l,m,s) 15 2 0 0
   R(n,l,m,s) 16 2 0 0
   R(n,l,m,s) 17 3 0 0
   R(n,l,m,s) 18 3 0 0
   R(n,l,m,s) 19 3 0 0
   R(n,l,m,s) 20 3 0 0
   R(n,l,m,s) 21 4 0 0
   R(n,l,m,s) 22 4 0 0
   R(n,l,m,s) 23 4 0 0
   R(n,l,m,s) 24 5 0 0
   R(n,l,m,s) 25 5 0 0
Expanding Ylm as L=1 as (1,-1,0) and L>1 as -l,-l+1,...,l-1,l
   Adding 1 spherical orbitals
   Adding 1 spherical orbitals
   Adding 1 spherical orbitals
   Adding 1 spherical orbitals
   Adding 1 spherical orbitals
   Adding 1 spherical orbitals
   Adding 3 spherical orbitals
   Adding 3 spherical orbitals
   Adding 3 spherical orbitals
   Adding 3 spherical orbitals
   Adding 3 spherical orbitals
   Adding 3 spherical orbitals
   Adding 5 spherical orbitals
   Adding 5 spherical orbitals
   Adding 5 spherical orbitals
   Adding 5 spherical orbitals
   Adding 5 spherical orbitals
   Adding 7 spherical orbitals
   Adding 7 spherical orbitals
   Adding 7 spherical orbitals
   Adding 7 spherical orbitals
   Adding 9 spherical orbitals
   Adding 9 spherical orbitals
   Adding 9 spherical orbitals
   Adding 11 spherical orbitals
   Adding 11 spherical orbitals
  Setting cutoff radius 2.42065e+21

   Maximum Angular Momentum  = 5
   Number of Radial functors = 26
   Basis size                = 126

<input node="atomicBasisSet" name="gaussian" expandYlm="pyscf" angular="spherical" elementType="H" normalized="no" type="Numerical" expM="0" />
  AO BasisSet for H
   Spherical Harmonics contain (-1)^m factor
   Angular momentum m expanded as -l, ... ,l, with the exception of L=1 (1,-1,0)
   Grid is created by the input paremters in h5
    Using log grid ri = 1e-06 rf = 100 npts = 1001
   R(n,l,m,s) 0 0 0 0
   R(n,l,m,s) 1 0 0 0
   R(n,l,m,s) 2 0 0 0
   R(n,l,m,s) 3 0 0 0
   R(n,l,m,s) 4 0 0 0
   R(n,l,m,s) 5 0 0 0
   R(n,l,m,s) 6 1 0 0
   R(n,l,m,s) 7 1 0 0
   R(n,l,m,s) 8 1 0 0
   R(n,l,m,s) 9 1 0 0
   R(n,l,m,s) 10 1 0 0
   R(n,l,m,s) 11 2 0 0
   R(n,l,m,s) 12 2 0 0
   R(n,l,m,s) 13 2 0 0
   R(n,l,m,s) 14 2 0 0
   R(n,l,m,s) 15 3 0 0
   R(n,l,m,s) 16 3 0 0
   R(n,l,m,s) 17 3 0 0
   R(n,l,m,s) 18 4 0 0
   R(n,l,m,s) 19 4 0 0
Expanding Ylm as L=1 as (1,-1,0) and L>1 as -l,-l+1,...,l-1,l
   Adding 1 spherical orbitals
   Adding 1 spherical orbitals
   Adding 1 spherical orbitals
   Adding 1 spherical orbitals
   Adding 1 spherical orbitals
   Adding 1 spherical orbitals
   Adding 3 spherical orbitals
   Adding 3 spherical orbitals
   Adding 3 spherical orbitals
   Adding 3 spherical orbitals
   Adding 3 spherical orbitals
   Adding 5 spherical orbitals
   Adding 5 spherical orbitals
   Adding 5 spherical orbitals
   Adding 5 spherical orbitals
   Adding 7 spherical orbitals
   Adding 7 spherical orbitals
   Adding 7 spherical orbitals
   Adding 9 spherical orbitals
   Adding 9 spherical orbitals
  Setting cutoff radius 4.64542e+16

   Maximum Angular Momentum  = 4
   Number of Radial functors = 20
   Basis size                = 80

  Created SPOSet builder named 'LCAOBSet' of type molecularorbital
Reuse SPOSetBuilder "LCAOBSet" type MolecularOrbital
  Building SPOSet '' with '' basis set.
Reuse SPOSetBuilder "LCAOBSet" type MolecularOrbital
  Building SPOSet '' with '' basis set.
  Creating a determinant updet group=0 sposet=updet
  Reusing a SPO set updet
  Setting delay_rank by default!
  Using rank-1 Sherman-Morrison Fahy update
  Using DiracDeterminant with DelayedUpdate engine

  Creating a determinant downdet group=1 sposet=downdet
  Reusing a SPO set downdet
  Setting delay_rank by default!
  Using rank-1 Sherman-Morrison Fahy update
  Using DiracDeterminant with DelayedUpdate engine

  Added a fermionic WaveFunctionComponent SlaterDet

   Jastrow
   -------
    Name: J2   Type: Two-Body   Function: Bspline

    Radial function for species: u - u
     Number of parameters: 10
     Cusp: -0.25
     Cutoff radius: 10

     Name                        Value Type Recompute Use Index
     ---- ---------------------------- ---- --------- --- -----
     uu_0                 5.681636e-01    1         1  ON     0
     uu_1                 3.876756e-01    1         1  ON     1
     uu_2                 2.336030e-01    1         1  ON     2
     uu_3                 1.267760e-01    1         1  ON     3
     uu_4                 5.554588e-02    1         1  ON     4
     uu_5                 8.095726e-03    1         1  ON     5
     uu_6                -2.530972e-02    1         1  ON     6
     uu_7                -4.812641e-02    1         1  ON     7
     uu_8                -5.978841e-02    1         1  ON     8
     uu_9                -6.013207e-02    1         1  ON     9

    Radial function for species: u - d
     Number of parameters: 10
     Cusp: -0.5
     Cutoff radius: 10

     Name                        Value Type Recompute Use Index
     ---- ---------------------------- ---- --------- --- -----
     ud_0                 9.634867e-01    1         1  ON     0
     ud_1                 6.196140e-01    1         1  ON     1
     ud_2                 3.813796e-01    1         1  ON     2
     ud_3                 2.307254e-01    1         1  ON     3
     ud_4                 1.386429e-01    1         1  ON     4
     ud_5                 7.261353e-02    1         1  ON     5
     ud_6                 2.163828e-02    1         1  ON     6
     ud_7                -1.812787e-02    1         1  ON     7
     ud_8                -4.101910e-02    1         1  ON     8
     ud_9                -5.462644e-02    1         1  ON     9


   Jastrow
   -------
    Name: J1   Type: One-Body   Function: Bspline

    Radial function for element: Si
     Number of parameters: 10
     Cusp: 0
     Cutoff radius: 10

      Name                        Value Type Recompute Use Index
     ----- ---------------------------- ---- --------- --- -----
     eSi_0                -4.097517e-01    1         1  ON     0
     eSi_1                -1.651576e-01    1         1  ON     1
     eSi_2                -6.654043e-02    1         1  ON     2
     eSi_3                 2.577350e-02    1         1  ON     3
     eSi_4                 5.425918e-02    1         1  ON     4
     eSi_5                 3.979554e-02    1         1  ON     5
     eSi_6                 3.533937e-02    1         1  ON     6
     eSi_7                 7.980593e-02    1         1  ON     7
     eSi_8                 2.237489e-01    1         1  ON     8
     eSi_9                 1.386922e-01    1         1  ON     9

    Radial function for element: H
     Number of parameters: 10
     Cusp: 0
     Cutoff radius: 10

     Name                        Value Type Recompute Use Index
     ---- ---------------------------- ---- --------- --- -----
     eH_0                -4.959208e-01    1         1  ON     0
     eH_1                -4.589460e-01    1         1  ON     1
     eH_2                -3.570960e-01    1         1  ON     2
     eH_3                -2.504673e-01    1         1  ON     3
     eH_4                -1.403854e-01    1         1  ON     4
     eH_5                -2.510369e-02    1         1  ON     5
     eH_6                 8.825091e-02    1         1  ON     6
     eH_7                 1.624265e-01    1         1  ON     7
     eH_8                 1.996149e-01    1         1  ON     8
     eH_9                 1.753873e-01    1         1  ON     9


   Jastrow
   -------
    Name: J3   Type: eeI   Function: polynomial

     Ion: Si   electron-electron: u - u
      Number of parameters for e-e: 3, for e-I: 3
      Cutoff radius: 10

Expected 26 parameters, but found 0 in PolynomialFunctor3D.
         Name                        Value Type Recompute Use Index
      ------- ---------------------------- ---- --------- --- -----
       uuSi_0                 0.000000e+00    1         1  ON     0
       uuSi_1                 0.000000e+00    1         1  ON     1
       uuSi_2                 0.000000e+00    1         1  ON     2
       uuSi_3                 0.000000e+00    1         1  ON     3
       uuSi_4                 0.000000e+00    1         1  ON     4
       uuSi_5                 0.000000e+00    1         1  ON     5
       uuSi_6                 0.000000e+00    1         1  ON     6
       uuSi_7                 0.000000e+00    1         1  ON     7
       uuSi_8                 0.000000e+00    1         1  ON     8
       uuSi_9                 0.000000e+00    1         1  ON     9
      uuSi_10                 0.000000e+00    1         1  ON    10
      uuSi_11                 0.000000e+00    1         1  ON    11
      uuSi_12                 0.000000e+00    1         1  ON    12
      uuSi_13                 0.000000e+00    1         1  ON    13
      uuSi_14                 0.000000e+00    1         1  ON    14
      uuSi_15                 0.000000e+00    1         1  ON    15
      uuSi_16                 0.000000e+00    1         1  ON    16
      uuSi_17                 0.000000e+00    1         1  ON    17
      uuSi_18                 0.000000e+00    1         1  ON    18
      uuSi_19                 0.000000e+00    1         1  ON    19
      uuSi_20                 0.000000e+00    1         1  ON    20
      uuSi_21                 0.000000e+00    1         1  ON    21
      uuSi_22                 0.000000e+00    1         1  ON    22
      uuSi_23                 0.000000e+00    1         1  ON    23
      uuSi_24                 0.000000e+00    1         1  ON    24
      uuSi_25                 0.000000e+00    1         1  ON    25

     Ion: Si   electron-electron: u - d
      Number of parameters for e-e: 3, for e-I: 3
      Cutoff radius: 10

Expected 26 parameters, but found 0 in PolynomialFunctor3D.
         Name                        Value Type Recompute Use Index
      ------- ---------------------------- ---- --------- --- -----
       udSi_0                 0.000000e+00    1         1  ON     0
       udSi_1                 0.000000e+00    1         1  ON     1
       udSi_2                 0.000000e+00    1         1  ON     2
       udSi_3                 0.000000e+00    1         1  ON     3
       udSi_4                 0.000000e+00    1         1  ON     4
       udSi_5                 0.000000e+00    1         1  ON     5
       udSi_6                 0.000000e+00    1         1  ON     6
       udSi_7                 0.000000e+00    1         1  ON     7
       udSi_8                 0.000000e+00    1         1  ON     8
       udSi_9                 0.000000e+00    1         1  ON     9
      udSi_10                 0.000000e+00    1         1  ON    10
      udSi_11                 0.000000e+00    1         1  ON    11
      udSi_12                 0.000000e+00    1         1  ON    12
      udSi_13                 0.000000e+00    1         1  ON    13
      udSi_14                 0.000000e+00    1         1  ON    14
      udSi_15                 0.000000e+00    1         1  ON    15
      udSi_16                 0.000000e+00    1         1  ON    16
      udSi_17                 0.000000e+00    1         1  ON    17
      udSi_18                 0.000000e+00    1         1  ON    18
      udSi_19                 0.000000e+00    1         1  ON    19
      udSi_20                 0.000000e+00    1         1  ON    20
      udSi_21                 0.000000e+00    1         1  ON    21
      udSi_22                 0.000000e+00    1         1  ON    22
      udSi_23                 0.000000e+00    1         1  ON    23
      udSi_24                 0.000000e+00    1         1  ON    24
      udSi_25                 0.000000e+00    1         1  ON    25

     Ion: H   electron-electron: u - u
      Number of parameters for e-e: 3, for e-I: 3
      Cutoff radius: 10

Expected 26 parameters, but found 0 in PolynomialFunctor3D.
        Name                        Value Type Recompute Use Index
      ------ ---------------------------- ---- --------- --- -----
       uuH_0                 0.000000e+00    1         1  ON     0
       uuH_1                 0.000000e+00    1         1  ON     1
       uuH_2                 0.000000e+00    1         1  ON     2
       uuH_3                 0.000000e+00    1         1  ON     3
       uuH_4                 0.000000e+00    1         1  ON     4
       uuH_5                 0.000000e+00    1         1  ON     5
       uuH_6                 0.000000e+00    1         1  ON     6
       uuH_7                 0.000000e+00    1         1  ON     7
       uuH_8                 0.000000e+00    1         1  ON     8
       uuH_9                 0.000000e+00    1         1  ON     9
      uuH_10                 0.000000e+00    1         1  ON    10
      uuH_11                 0.000000e+00    1         1  ON    11
      uuH_12                 0.000000e+00    1         1  ON    12
      uuH_13                 0.000000e+00    1         1  ON    13
      uuH_14                 0.000000e+00    1         1  ON    14
      uuH_15                 0.000000e+00    1         1  ON    15
      uuH_16                 0.000000e+00    1         1  ON    16
      uuH_17                 0.000000e+00    1         1  ON    17
      uuH_18                 0.000000e+00    1         1  ON    18
      uuH_19                 0.000000e+00    1         1  ON    19
      uuH_20                 0.000000e+00    1         1  ON    20
      uuH_21                 0.000000e+00    1         1  ON    21
      uuH_22                 0.000000e+00    1         1  ON    22
      uuH_23                 0.000000e+00    1         1  ON    23
      uuH_24                 0.000000e+00    1         1  ON    24
      uuH_25                 0.000000e+00    1         1  ON    25

     Ion: H   electron-electron: u - d
      Number of parameters for e-e: 3, for e-I: 3
      Cutoff radius: 10

Expected 26 parameters, but found 0 in PolynomialFunctor3D.
        Name                        Value Type Recompute Use Index
      ------ ---------------------------- ---- --------- --- -----
       udH_0                 0.000000e+00    1         1  ON     0
       udH_1                 0.000000e+00    1         1  ON     1
       udH_2                 0.000000e+00    1         1  ON     2
       udH_3                 0.000000e+00    1         1  ON     3
       udH_4                 0.000000e+00    1         1  ON     4
       udH_5                 0.000000e+00    1         1  ON     5
       udH_6                 0.000000e+00    1         1  ON     6
       udH_7                 0.000000e+00    1         1  ON     7
       udH_8                 0.000000e+00    1         1  ON     8
       udH_9                 0.000000e+00    1         1  ON     9
      udH_10                 0.000000e+00    1         1  ON    10
      udH_11                 0.000000e+00    1         1  ON    11
      udH_12                 0.000000e+00    1         1  ON    12
      udH_13                 0.000000e+00    1         1  ON    13
      udH_14                 0.000000e+00    1         1  ON    14
      udH_15                 0.000000e+00    1         1  ON    15
      udH_16                 0.000000e+00    1         1  ON    16
      udH_17                 0.000000e+00    1         1  ON    17
      udH_18                 0.000000e+00    1         1  ON    18
      udH_19                 0.000000e+00    1         1  ON    19
      udH_20                 0.000000e+00    1         1  ON    20
      udH_21                 0.000000e+00    1         1  ON    21
      udH_22                 0.000000e+00    1         1  ON    22
      udH_23                 0.000000e+00    1         1  ON    23
      udH_24                 0.000000e+00    1         1  ON    24
      udH_25                 0.000000e+00    1         1  ON    25

  QMCHamiltonian::addOperator Kinetic to H, physical Hamiltonian 
  QMCHamiltonian::addOperator ElecElec to H, physical Hamiltonian 
QMCHamiltonian::addOperatorType added type coulomb named ElecElec
  QMCHamiltonian::addOperator IonIon to H, physical Hamiltonian 
QMCHamiltonian::addOperatorType added type coulomb named IonIon

  ECPotential builder for pseudopotential 

  Adding pseudopotential for H
   Linear grid  ri=0 rf=10 npts = 10001
    ECPComponentBuilder::buildSemiLocalAndLocal 
    Assuming Hartree unit
   Number of angular momentum channels 2
   Maximum angular momentum channel 1
   Creating a Linear Grid Rmax=1e-10
  Using global grid with delta = 0.001
   Making L=1 a local potential with a radial cutoff of 9.999
    Non-local pseudopotential parameters
    Maximum angular mementum = 0
    Number of non-local channels = 1
       l(0)=0
    Cutoff radius = 0.001
    Spherical grids and weights: 
                        1                 0                 0       0.08333333333
                       -1   1.224646799e-16                 0       0.08333333333
             0.4472135955       0.894427191                 0       0.08333333333
            -0.4472135955      0.7236067977      0.5257311121       0.08333333333
             0.4472135955      0.2763932023      0.8506508084       0.08333333333
            -0.4472135955     -0.2763932023      0.8506508084       0.08333333333
             0.4472135955     -0.7236067977      0.5257311121       0.08333333333
            -0.4472135955      -0.894427191   1.095357397e-16       0.08333333333
             0.4472135955     -0.7236067977     -0.5257311121       0.08333333333
            -0.4472135955     -0.2763932023     -0.8506508084       0.08333333333
             0.4472135955      0.2763932023     -0.8506508084       0.08333333333
            -0.4472135955      0.7236067977     -0.5257311121       0.08333333333
    Maximum cutoff radius 0.001

  Adding pseudopotential for Si
   Linear grid  ri=0 rf=10 npts = 10001
    ECPComponentBuilder::buildSemiLocalAndLocal 
    Assuming Hartree unit
   Number of angular momentum channels 3
   Maximum angular momentum channel 2
   Creating a Linear Grid Rmax=2.69
  Using global grid with delta = 0.001
   Making L=2 a local potential with a radial cutoff of 9.999
    Non-local pseudopotential parameters
    Maximum angular mementum = 1
    Number of non-local channels = 2
       l(0)=0
       l(1)=1
    Cutoff radius = 2.69
    Spherical grids and weights: 
                        1                 0                 0       0.08333333333
                       -1   1.224646799e-16                 0       0.08333333333
             0.4472135955       0.894427191                 0       0.08333333333
            -0.4472135955      0.7236067977      0.5257311121       0.08333333333
             0.4472135955      0.2763932023      0.8506508084       0.08333333333
            -0.4472135955     -0.2763932023      0.8506508084       0.08333333333
             0.4472135955     -0.7236067977      0.5257311121       0.08333333333
            -0.4472135955      -0.894427191   1.095357397e-16       0.08333333333
             0.4472135955     -0.7236067977     -0.5257311121       0.08333333333
            -0.4472135955     -0.2763932023     -0.8506508084       0.08333333333
             0.4472135955      0.2763932023     -0.8506508084       0.08333333333
            -0.4472135955      0.7236067977     -0.5257311121       0.08333333333
    Maximum cutoff radius 2.69
  QMCHamiltonian::addOperator LocalECP to H, physical Hamiltonian 

  Using NonLocalECP potential 
    Maximum grid on a sphere for NonLocalECPotential: 12
  QMCHamiltonian::addOperator NonLocalECP to H, physical Hamiltonian 
QMCHamiltonian::addOperatorType added type pseudo named PseudoPot

  QMCHamiltonian::add2WalkerProperty added
    5 to P::PropertyList 
    0 to P::Collectables 
    starting Index of the observables in P::PropertyList = 9
ParticleSetPool::randomize 1 ParticleSet.
<init source="ion0" target="e">
</init>
  Initialization Execution time = 0.4373 secs
=========================================================
 Summary of QMC systems 
=========================================================
ParticleSetPool has: 

  ParticleSet 'e' contains 8 particles :  u(4) d(4)

    u -2.7008203894e-01 -3.5071280269e-01 -1.0273053296e+00
    u  5.8660231573e-01  6.6577656794e-01 -6.8113089980e-01
    u  6.9278333713e-01  1.5247157430e+00  9.8727721262e-01
    u -2.4387309300e+00  2.0713670013e+00 -1.0117337415e+00
    d -9.4768376505e-01  2.6600408088e-01 -5.3144833081e-01
    d  9.7550730680e-01 -3.9160654028e-01 -3.8253082216e-01
    d -1.4777761832e+00 -1.7141834467e+00  5.0884073895e-01
    d  1.2574341579e+00 -2.2794869199e+00 -7.8896290900e-01

  Distance table for dissimilar particles (A-B):
    source: ion0  target: e
    Using structure-of-arrays (SoA) data layout
    Distance computations use open boundary conditions in 3D.

  Distance table for similar particles (A-A):
    source/target: e
    Using structure-of-arrays (SoA) data layout
    Distance computations use open boundary conditions in 3D.


  ParticleSet 'ion0' contains 5 particles :  Si(1) H(4)

    Si  0.0000000000e+00  0.0000000000e+00  0.0000000000e+00
    H  1.6145820008e+00  1.6145820008e+00  1.6145820008e+00
    H -1.6145820008e+00 -1.6145820008e+00  1.6145820008e+00
    H -1.6145820008e+00  1.6145820008e+00 -1.6145820008e+00
    H  1.6145820008e+00 -1.6145820008e+00 -1.6145820008e+00

  Distance table for similar particles (A-A):
    source/target: ion0
    Using structure-of-arrays (SoA) data layout
    Distance computations use open boundary conditions in 3D.


  Hamiltonian h0
  Kinetic         Kinetic energy
  ElecElec        CoulombAB source=e

  IonIon          CoulombAA source/target ion0

  LocalECP        LocalECPotential: ion0
  NonLocalECP     NonLocalECPotential: ion0

Loop execution max-interations = 5

=========================================================
  Start QMCFixedSampleLinearOptimize
  File Root qmc.s000 append = no 
=========================================================
  Skip QMCDriver::putQMCInfo 
  Resetting Properties of the walkers 1 x 14
  Adding 21 walkers to 0 existing sets
  Total number of walkers: 3.3600000000e+02
  Total weight: 3.3600000000e+02

=========================================================
  Start VMC
  File Root qmc.s000 append = no 
=========================================================
Resetting walkers
  Using the current 21 walkers.
  Total number of walkers: 3.3600000000e+02
  Total weight: 3.3600000000e+02
  Resetting Properties of the walkers 1 x 14

<vmc function="put">
  qmc_counter=0  my_counter=0
  time step      = 5.0000000000e-01
  blocks         = 20
  steps          = 149
  substeps       = 4
  current        = 0
  target samples = 1.0000000000e+06
  walkers/mpi    = 21

  stepsbetweensamples = 1
  SpinMoves      = no
<parameter name="blocks" condition="int">20</parameter>
<parameter name="blocks_between_recompute" condition="int">0</parameter>
<parameter name="check_properties" condition="int">100</parameter>
<parameter name="checkproperties" condition="int">100</parameter>
<parameter name="current" condition="int">0</parameter>
<parameter name="dmcwalkersperthread" condition="real">2.9770000000e+03</parameter>
<parameter name="maxcpusecs" condition="real">3.6000000000e+05</parameter>
<parameter name="record_configs" condition="int">0</parameter>
<parameter name="record_walkers" condition="int">1</parameter>
<parameter name="recordconfigs" condition="int">0</parameter>
<parameter name="recordwalkers" condition="int">1</parameter>
<parameter name="rewind" condition="int">0</parameter>
<parameter name="samples" condition="real">1.0000000000e+06</parameter>
<parameter name="samplesperthread" condition="real">2.9770000000e+03</parameter>
<parameter name="spinmass" condition="double">1.0000000000e+00</parameter>
<parameter name="spinmoves" condition="string">no</parameter>
<parameter name="steps" condition="int">149</parameter>
<parameter name="stepsbetweensamples" condition="int">1</parameter>
<parameter name="store_configs" condition="int">0</parameter>
<parameter name="storeconfigs" condition="int">0</parameter>
<parameter name="sub_steps" condition="int">4</parameter>
<parameter name="substeps" condition="int">4</parameter>
<parameter name="tau" condition="au">5.0000000000e-01</parameter>
<parameter name="time_step" condition="au">5.0000000000e-01</parameter>
<parameter name="timestep" condition="au">5.0000000000e-01</parameter>
<parameter name="use_drift" condition="string">no</parameter>
<parameter name="usedrift" condition="string">no</parameter>
<parameter name="walkers" condition="int">21</parameter>
<parameter name="warmup_steps" condition="int">100</parameter>
<parameter name="warmupsteps" condition="int">100</parameter>
  DumpConfig==false Nothing (configurations, state) will be saved.
  Walker Samples are dumped every 1 steps.
</vmc>
  Set drift_modifier UNR parameter a = 1.0000000000e+00
 Using QMCCostFunction::QMCCostFunction
  Set drift_modifier UNR parameter a = 1.0000000000e+00
<optimization-report>
<vmc stage="main" blocks="20">
  CloneManager::makeClones makes 21 clones for W/Psi/H.
  Cloning methods for both Psi and H are used
===== Memory Usage before cloning =====
Available memory on node 0, free + buffers : 517721 MB
Memory footprint by rank 0 on node 0       : 180 MB
==================================================
===== Memory Usage after cloning =====
Available memory on node 0, free + buffers : 517684 MB
Memory footprint by rank 0 on node 0       : 180 MB
==================================================
  Initial partition of walkers 0 1 2 3 4 5 6 7 8 9 10 11 12 13 14 15 16 17 18 19 20 21 

  Using Particle by Particle moves
  Walker moves without drift
  Total Sample Size   =1000272
  Walker distribution on root = 0 1 2 3 4 5 6 7 8 9 10 11 12 13 14 15 16 17 18 19 20 21 
  Using Locality Approximation
===== Memory Usage after the buffer registration =====
Available memory on node 0, free + buffers : 517682 MB
Memory footprint by rank 0 on node 0       : 180 MB
==================================================
  Anonymous Buffer size per walker : 19168 Bytes.
MEMORY increase 0 MB VMC::resetRun
====================================================
  SimpleFixedNodeBranch::finalize after a VMC block
    QMC counter        = 0
    time step          = 0.5
    reference energy   = -6.25107
    reference variance = 0.047507
====================================================
  Execution time = 3.7302e+00
</vmc>
<opt stage="setup">
  <log>
   Reading configurations from h5FileRoot qmc.s000
  QMCCostFunction is created with 21 threads.
  Using Nonlocal PP in Opt: no
   Number of samples loaded to each thread : 2977 2977 2977 2977 2977 2977 2977 2977 2977 2977 2977 2977 2977 2977 2977 2977 2977 2977 2977 2977 2977 
  VMC Eavg = -6.2779e+00
  VMC Evar = 2.4016e-01
  Total weights = 1.0003e+06
  Execution time = 3.4412e+00
  </log>
</opt>
<opt stage="main" walkers="1000272">
  <log>

*****************************************
Building overlap and Hamiltonian matrices
*****************************************

Among totally 144 optimized parameters, largest LM parameter change : 3.7039e-02 at parameter 31

******************************************************************************
Init Cost =  -5.9520e+00    New Cost =  -5.9585e+00  Delta Cost =  -6.4999e-03
******************************************************************************

The new set of parameters is valid. Updating the trial wave function!

*****************************************************************************
Applying the update for shift_i =   1.0000e-02     and shift_s =   2.5000e-01
*****************************************************************************
  Execution time = 8.5883e+00
  </log>
  <optVariables href="qmc.s000.opt.xml">
   uu_0                 5.635174e-01 1 1  ON 0
   uu_1                 3.721910e-01 1 1  ON 1
   uu_2                 2.310431e-01 1 1  ON 2
   uu_3                 1.315967e-01 1 1  ON 3
   uu_4                 6.587771e-02 1 1  ON 4
   uu_5                 1.989969e-02 1 1  ON 5
   uu_6                -1.482850e-02 1 1  ON 6
   uu_7                -3.843057e-02 1 1  ON 7
   uu_8                -5.069786e-02 1 1  ON 8
   uu_9                -5.381036e-02 1 1  ON 9
   ud_0                 9.552910e-01 1 1  ON 10
   ud_1                 6.131872e-01 1 1  ON 11
   ud_2                 3.894212e-01 1 1  ON 12
   ud_3                 2.396886e-01 1 1  ON 13
   ud_4                 1.459535e-01 1 1  ON 14
   ud_5                 8.382601e-02 1 1  ON 15
   ud_6                 3.457835e-02 1 1  ON 16
   ud_7                -5.324183e-03 1 1  ON 17
   ud_8                -3.215963e-02 1 1  ON 18
   ud_9                -4.587647e-02 1 1  ON 19
  eSi_0                -4.191104e-01 1 1  ON 20
  eSi_1                -1.653589e-01 1 1  ON 21
  eSi_2                -8.132094e-02 1 1  ON 22
  eSi_3                 1.176346e-02 1 1  ON 23
  eSi_4                 6.355503e-02 1 1  ON 24
  eSi_5                 3.518894e-02 1 1  ON 25
  eSi_6                 3.220408e-02 1 1  ON 26
  eSi_7                 7.433558e-02 1 1  ON 27
  eSi_8                 2.334026e-01 1 1  ON 28
  eSi_9                 1.589375e-01 1 1  ON 29
   eH_0                -5.269561e-01 1 1  ON 30
   eH_1                -4.959851e-01 1 1  ON 31
   eH_2                -3.684351e-01 1 1  ON 32
   eH_3                -2.527182e-01 1 1  ON 33
   eH_4                -1.405861e-01 1 1  ON 34
   eH_5                -3.366038e-02 1 1  ON 35
   eH_6                 7.038954e-02 1 1  ON 36
   eH_7                 1.575960e-01 1 1  ON 37
   eH_8                 1.926648e-01 1 1  ON 38
   eH_9                 1.673941e-01 1 1  ON 39
 uuSi_0                -2.823934e-05 1 1  ON 40
 uuSi_1                -7.772545e-05 1 1  ON 41
 uuSi_2                 2.332741e-05 1 1  ON 42
 uuSi_3                 5.834325e-05 1 1  ON 43
 uuSi_4                 5.091731e-06 1 1  ON 44
 uuSi_5                 9.148133e-06 1 1  ON 45
 uuSi_6                -8.101900e-05 1 1  ON 46
 uuSi_7                 8.114194e-05 1 1  ON 47
 uuSi_8                 9.863686e-06 1 1  ON 48
 uuSi_9                 5.393543e-05 1 1  ON 49
uuSi_10                 4.499962e-05 1 1  ON 50
uuSi_11                -5.842121e-05 1 1  ON 51
uuSi_12                 1.611188e-06 1 1  ON 52
uuSi_13                -5.253514e-05 1 1  ON 53
uuSi_14                 2.487042e-06 1 1  ON 54
uuSi_15                -2.676697e-07 1 1  ON 55
uuSi_16                -5.386602e-05 1 1  ON 56
uuSi_17                -5.095839e-05 1 1  ON 57
uuSi_18                 4.410923e-05 1 1  ON 58
uuSi_19                -3.430524e-06 1 1  ON 59
uuSi_20                 2.369761e-05 1 1  ON 60
uuSi_21                -6.045281e-06 1 1  ON 61
uuSi_22                 6.848394e-07 1 1  ON 62
uuSi_23                -4.575816e-06 1 1  ON 63
uuSi_24                 1.151538e-06 1 1  ON 64
uuSi_25                -1.548754e-07 1 1  ON 65
 udSi_0                -3.364843e-05 1 1  ON 66
 udSi_1                 1.907980e-05 1 1  ON 67
 udSi_2                 3.680239e-05 1 1  ON 68
 udSi_3                 5.621896e-05 1 1  ON 69
 udSi_4                 3.324976e-06 1 1  ON 70
 udSi_5                -5.039593e-06 1 1  ON 71
 udSi_6                 1.046390e-04 1 1  ON 72
 udSi_7                 2.267937e-05 1 1  ON 73
 udSi_8                -9.375804e-06 1 1  ON 74
 udSi_9                -6.522655e-05 1 1  ON 75
udSi_10                 2.870807e-05 1 1  ON 76
udSi_11                -2.448331e-05 1 1  ON 77
udSi_12                 6.851967e-06 1 1  ON 78
udSi_13                -5.744776e-05 1 1  ON 79
udSi_14                -7.526120e-06 1 1  ON 80
udSi_15                 7.368580e-09 1 1  ON 81
udSi_16                 1.238629e-04 1 1  ON 82
udSi_17                -7.559946e-05 1 1  ON 83
udSi_18                 2.111507e-05 1 1  ON 84
udSi_19                -4.080577e-06 1 1  ON 85
udSi_20                -3.831029e-06 1 1  ON 86
udSi_21                 6.462970e-07 1 1  ON 87
udSi_22                 2.191518e-07 1 1  ON 88
udSi_23                 1.437144e-06 1 1  ON 89
udSi_24                -3.676107e-07 1 1  ON 90
udSi_25                 2.300924e-09 1 1  ON 91
  uuH_0                -1.508365e-05 1 1  ON 92
  uuH_1                -4.243129e-06 1 1  ON 93
  uuH_2                 1.277587e-05 1 1  ON 94
  uuH_3                 5.359383e-06 1 1  ON 95
  uuH_4                -8.839543e-07 1 1  ON 96
  uuH_5                 6.189682e-07 1 1  ON 97
  uuH_6                 7.475585e-06 1 1  ON 98
  uuH_7                 1.372874e-05 1 1  ON 99
  uuH_8                 4.064826e-06 1 1  ON 100
  uuH_9                 8.235458e-06 1 1  ON 101
 uuH_10                 3.687899e-06 1 1  ON 102
 uuH_11                -8.558214e-06 1 1  ON 103
 uuH_12                 9.657830e-08 1 1  ON 104
 uuH_13                -1.275037e-05 1 1  ON 105
 uuH_14                -3.172740e-07 1 1  ON 106
 uuH_15                 4.533155e-09 1 1  ON 107
 uuH_16                -8.436707e-06 1 1  ON 108
 uuH_17                -1.155416e-05 1 1  ON 109
 uuH_18                 5.306248e-06 1 1  ON 110
 uuH_19                -5.550181e-07 1 1  ON 111
 uuH_20                 7.984603e-06 1 1  ON 112
 uuH_21                -5.551406e-07 1 1  ON 113
 uuH_22                 9.180127e-08 1 1  ON 114
 uuH_23                -2.320338e-06 1 1  ON 115
 uuH_24                 1.767236e-07 1 1  ON 116
 uuH_25                -2.799862e-08 1 1  ON 117
  udH_0                 4.606111e-06 1 1  ON 118
  udH_1                -8.796464e-06 1 1  ON 119
  udH_2                -8.236183e-06 1 1  ON 120
  udH_3                -4.649233e-06 1 1  ON 121
  udH_4                 5.641720e-07 1 1  ON 122
  udH_5                 3.937244e-06 1 1  ON 123
  udH_6                -1.657842e-05 1 1  ON 124
  udH_7                -5.525620e-07 1 1  ON 125
  udH_8                -4.753080e-06 1 1  ON 126
  udH_9                 9.577678e-06 1 1  ON 127
 udH_10                -2.497368e-06 1 1  ON 128
 udH_11                 2.998246e-06 1 1  ON 129
 udH_12                 8.066870e-07 1 1  ON 130
 udH_13                -1.794092e-06 1 1  ON 131
 udH_14                -5.967013e-07 1 1  ON 132
 udH_15                -3.047957e-08 1 1  ON 133
 udH_16                 7.163816e-06 1 1  ON 134
 udH_17                -2.770666e-06 1 1  ON 135
 udH_18                -3.320560e-07 1 1  ON 136
 udH_19                -3.620226e-07 1 1  ON 137
 udH_20                -2.663355e-06 1 1  ON 138
 udH_21                 3.738130e-07 1 1  ON 139
 udH_22                 2.087356e-08 1 1  ON 140
 udH_23                 1.602849e-06 1 1  ON 141
 udH_24                -2.331953e-07 1 1  ON 142
 udH_25                 1.577080e-08 1 1  ON 143
  </optVariables>
   Restore the number of walkers to 21, removing 0 walkers.
</opt>
</optimization-report>
  QMC Execution time = 8.6 secs

=========================================================
  Start QMCFixedSampleLinearOptimize
  File Root qmc.s001 append = no 
=========================================================
  Skip QMCDriver::putQMCInfo 
  Resetting Properties of the walkers 1 x 14

=========================================================
  Start VMC
  File Root qmc.s001 append = no 
=========================================================
Using existing walkers 
  Resetting Properties of the walkers 1 x 14

<vmc function="put">
  qmc_counter=1  my_counter=0
  time step      = 0.5
  blocks         = 20
  steps          = 149
  substeps       = 4
  current        = 0
  target samples = 1e+06
  walkers/mpi    = 21

  stepsbetweensamples = 1
  SpinMoves      = no
<parameter name="blocks" condition="int">20</parameter>
<parameter name="blocks_between_recompute" condition="int">0</parameter>
<parameter name="check_properties" condition="int">100</parameter>
<parameter name="checkproperties" condition="int">100</parameter>
<parameter name="current" condition="int">0</parameter>
<parameter name="dmcwalkersperthread" condition="real">2977</parameter>
<parameter name="maxcpusecs" condition="real">3.6e+05</parameter>
<parameter name="record_configs" condition="int">0</parameter>
<parameter name="record_walkers" condition="int">1</parameter>
<parameter name="recordconfigs" condition="int">0</parameter>
<parameter name="recordwalkers" condition="int">1</parameter>
<parameter name="rewind" condition="int">0</parameter>
<parameter name="samples" condition="real">1e+06</parameter>
<parameter name="samplesperthread" condition="real">2977</parameter>
<parameter name="spinmass" condition="double">1</parameter>
<parameter name="spinmoves" condition="string">no</parameter>
<parameter name="steps" condition="int">149</parameter>
<parameter name="stepsbetweensamples" condition="int">1</parameter>
<parameter name="store_configs" condition="int">0</parameter>
<parameter name="storeconfigs" condition="int">0</parameter>
<parameter name="sub_steps" condition="int">4</parameter>
<parameter name="substeps" condition="int">4</parameter>
<parameter name="tau" condition="au">0.5</parameter>
<parameter name="time_step" condition="au">0.5</parameter>
<parameter name="timestep" condition="au">0.5</parameter>
<parameter name="use_drift" condition="string">no</parameter>
<parameter name="usedrift" condition="string">no</parameter>
<parameter name="walkers" condition="int">1</parameter>
<parameter name="warmup_steps" condition="int">100</parameter>
<parameter name="warmupsteps" condition="int">100</parameter>
  DumpConfig==false Nothing (configurations, state) will be saved.
  Walker Samples are dumped every 1 steps.
</vmc>
    Restarting, cummulative properties:
      energy     = -6.251
      variance   = 0
      r2accepted = 1e-10
      r2proposed = 1e-10
  Set drift_modifier UNR parameter a = 1
 Using QMCCostFunction::QMCCostFunction
  Set drift_modifier UNR parameter a = 1.0000e+00
  EstimatorManagerBase::add replace LocalEnergy estimator.
<optimization-report>
<vmc stage="main" blocks="20">
  Cannot make clones again. Use existing 21 clones
  Initial partition of walkers 0 1 2 3 4 5 6 7 8 9 10 11 12 13 14 15 16 17 18 19 20 21 

  Using Particle by Particle moves
  Walker moves without drift
  Total Sample Size   =1000272
  Walker distribution on root = 0 1 2 3 4 5 6 7 8 9 10 11 12 13 14 15 16 17 18 19 20 21 
  Using Locality Approximation
===== Memory Usage after the buffer registration =====
Available memory on node 0, free + buffers : 517466 MB
Memory footprint by rank 0 on node 0       : 386 MB
==================================================
  Anonymous Buffer size per walker : 19168 Bytes.
MEMORY increase 0 MB VMC::resetRun
====================================================
  SimpleFixedNodeBranch::finalize after a VMC block
    QMC counter        = 1
    time step          = 0.5
    reference energy   = -6.26164
    reference variance = 0.0265748
====================================================
  Execution time = 3.7517e+00
</vmc>
<opt stage="setup">
  <log>
   Reading configurations from h5FileRoot qmc.s001
  QMCCostFunction is created with 21 threads.
  Using Nonlocal PP in Opt: no
   Number of samples loaded to each thread : 2977 2977 2977 2977 2977 2977 2977 2977 2977 2977 2977 2977 2977 2977 2977 2977 2977 2977 2977 2977 2977 
  VMC Eavg = -6.2842e+00
  VMC Evar = 2.4742e-01
  Total weights = 1.0003e+06
  Execution time = 3.4501e+00
  </log>
</opt>
<opt stage="main" walkers="1000272">
  <log>

*****************************************
Building overlap and Hamiltonian matrices
*****************************************

Among totally 144 optimized parameters, largest LM parameter change : 3.0542e-02 at parameter 30

******************************************************************************
Init Cost =  -5.9576e+00    New Cost =  -5.9581e+00  Delta Cost =  -4.9814e-04
******************************************************************************

The new set of parameters is valid. Updating the trial wave function!

*****************************************************************************
Applying the update for shift_i =   1.0000e-02     and shift_s =   6.2500e-02
*****************************************************************************
  Execution time = 8.5439e+00
  </log>
  <optVariables href="qmc.s001.opt.xml">
   uu_0                 5.589798e-01 1 1  ON 0
   uu_1                 3.654752e-01 1 1  ON 1
   uu_2                 2.304815e-01 1 1  ON 2
   uu_3                 1.370727e-01 1 1  ON 3
   uu_4                 7.581889e-02 1 1  ON 4
   uu_5                 3.112628e-02 1 1  ON 5
   uu_6                -4.754636e-03 1 1  ON 6
   uu_7                -3.015862e-02 1 1  ON 7
   uu_8                -4.245637e-02 1 1  ON 8
   uu_9                -4.621515e-02 1 1  ON 9
   ud_0                 9.494932e-01 1 1  ON 10
   ud_1                 6.126764e-01 1 1  ON 11
   ud_2                 3.968910e-01 1 1  ON 12
   ud_3                 2.498675e-01 1 1  ON 13
   ud_4                 1.573888e-01 1 1  ON 14
   ud_5                 9.621842e-02 1 1  ON 15
   ud_6                 4.692756e-02 1 1  ON 16
   ud_7                 6.960136e-03 1 1  ON 17
   ud_8                -2.300064e-02 1 1  ON 18
   ud_9                -3.795393e-02 1 1  ON 19
  eSi_0                -4.287449e-01 1 1  ON 20
  eSi_1                -1.700381e-01 1 1  ON 21
  eSi_2                -9.141512e-02 1 1  ON 22
  eSi_3                 4.214270e-03 1 1  ON 23
  eSi_4                 6.407767e-02 1 1  ON 24
  eSi_5                 3.250887e-02 1 1  ON 25
  eSi_6                 2.955833e-02 1 1  ON 26
  eSi_7                 7.371467e-02 1 1  ON 27
  eSi_8                 2.407552e-01 1 1  ON 28
  eSi_9                 1.768376e-01 1 1  ON 29
   eH_0                -5.574980e-01 1 1  ON 30
   eH_1                -5.231962e-01 1 1  ON 31
   eH_2                -3.835256e-01 1 1  ON 32
   eH_3                -2.599069e-01 1 1  ON 33
   eH_4                -1.454718e-01 1 1  ON 34
   eH_5                -4.237612e-02 1 1  ON 35
   eH_6                 5.870557e-02 1 1  ON 36
   eH_7                 1.525587e-01 1 1  ON 37
   eH_8                 1.906044e-01 1 1  ON 38
   eH_9                 1.627945e-01 1 1  ON 39
 uuSi_0                -3.435580e-05 1 1  ON 40
 uuSi_1                -9.133754e-05 1 1  ON 41
 uuSi_2                 3.804346e-05 1 1  ON 42
 uuSi_3                 7.097882e-05 1 1  ON 43
 uuSi_4                 3.724769e-06 1 1  ON 44
 uuSi_5                 1.195921e-05 1 1  ON 45
 uuSi_6                -9.133207e-05 1 1  ON 46
 uuSi_7                 1.118665e-04 1 1  ON 47
 uuSi_8                 2.613472e-05 1 1  ON 48
 uuSi_9                 5.425102e-05 1 1  ON 49
uuSi_10                 5.527311e-05 1 1  ON 50
uuSi_11                -8.775330e-05 1 1  ON 51
uuSi_12                -1.337460e-06 1 1  ON 52
uuSi_13                -6.032827e-05 1 1  ON 53
uuSi_14                 6.771241e-06 1 1  ON 54
uuSi_15                -3.681442e-07 1 1  ON 55
uuSi_16                -5.312890e-05 1 1  ON 56
uuSi_17                -6.286100e-05 1 1  ON 57
uuSi_18                 6.414574e-05 1 1  ON 58
uuSi_19                -3.773854e-06 1 1  ON 59
uuSi_20                 2.538856e-05 1 1  ON 60
uuSi_21                -9.209962e-06 1 1  ON 61
uuSi_22                 9.658843e-07 1 1  ON 62
uuSi_23                -4.594304e-06 1 1  ON 63
uuSi_24                 1.654377e-06 1 1  ON 64
uuSi_25                -2.252350e-07 1 1  ON 65
 udSi_0                -4.299526e-05 1 1  ON 66
 udSi_1                 6.905213e-05 1 1  ON 67
 udSi_2                 5.389594e-05 1 1  ON 68
 udSi_3                 5.457864e-05 1 1  ON 69
 udSi_4                 9.969724e-07 1 1  ON 70
 udSi_5                -1.042905e-05 1 1  ON 71
 udSi_6                 1.939646e-04 1 1  ON 72
 udSi_7                 2.327769e-07 1 1  ON 73
 udSi_8                -9.293380e-06 1 1  ON 74
 udSi_9                -1.176912e-04 1 1  ON 75
udSi_10                 2.317811e-05 1 1  ON 76
udSi_11                -1.548740e-05 1 1  ON 77
udSi_12                 7.049971e-06 1 1  ON 78
udSi_13                -5.718776e-05 1 1  ON 79
udSi_14                -1.026389e-05 1 1  ON 80
udSi_15                 1.897460e-07 1 1  ON 81
udSi_16                 1.773936e-04 1 1  ON 82
udSi_17                -8.307658e-05 1 1  ON 83
udSi_18                 1.389029e-05 1 1  ON 84
udSi_19                -3.596410e-06 1 1  ON 85
udSi_20                -1.104666e-05 1 1  ON 86
udSi_21                 2.627172e-06 1 1  ON 87
udSi_22                 1.992855e-11 1 1  ON 88
udSi_23                 2.903368e-06 1 1  ON 89
udSi_24                -7.990803e-07 1 1  ON 90
udSi_25                 5.884431e-08 1 1  ON 91
  uuH_0                -1.818591e-05 1 1  ON 92
  uuH_1                 1.712404e-06 1 1  ON 93
  uuH_2                 1.679359e-05 1 1  ON 94
  uuH_3                 3.804462e-06 1 1  ON 95
  uuH_4                -1.895871e-06 1 1  ON 96
  uuH_5                 8.126707e-07 1 1  ON 97
  uuH_6                 2.195115e-05 1 1  ON 98
  uuH_7                 9.457925e-06 1 1  ON 99
  uuH_8                 4.726991e-06 1 1  ON 100
  uuH_9                 4.253187e-07 1 1  ON 101
 uuH_10                 1.437114e-06 1 1  ON 102
 uuH_11                -4.908033e-06 1 1  ON 103
 uuH_12                -3.358885e-07 1 1  ON 104
 uuH_13                -1.033602e-05 1 1  ON 105
 uuH_14                -5.634943e-07 1 1  ON 106
 uuH_15                 6.003382e-08 1 1  ON 107
 uuH_16                -4.105743e-06 1 1  ON 108
 uuH_17                -8.843621e-06 1 1  ON 109
 uuH_18                 6.384614e-07 1 1  ON 110
 uuH_19                 1.178592e-07 1 1  ON 111
 uuH_20                 7.226198e-06 1 1  ON 112
 uuH_21                 2.017621e-07 1 1  ON 113
 uuH_22                -4.202027e-08 1 1  ON 114
 uuH_23                -2.184628e-06 1 1  ON 115
 uuH_24                 1.793774e-08 1 1  ON 116
 uuH_25                 2.399206e-09 1 1  ON 117
  udH_0                 5.331994e-06 1 1  ON 118
  udH_1                -9.823028e-06 1 1  ON 119
  udH_2                -1.136583e-05 1 1  ON 120
  udH_3                -4.593090e-06 1 1  ON 121
  udH_4                 1.106524e-06 1 1  ON 122
  udH_5                 6.074559e-06 1 1  ON 123
  udH_6                -1.943718e-05 1 1  ON 124
  udH_7                -1.959550e-06 1 1  ON 125
  udH_8                -7.889899e-06 1 1  ON 126
  udH_9                 1.171647e-05 1 1  ON 127
 udH_10                -2.629944e-06 1 1  ON 128
 udH_11                 5.234732e-06 1 1  ON 129
 udH_12                 1.369940e-06 1 1  ON 130
 udH_13                -3.849498e-06 1 1  ON 131
 udH_14                -1.159183e-06 1 1  ON 132
 udH_15                -3.039429e-08 1 1  ON 133
 udH_16                 9.492054e-06 1 1  ON 134
 udH_17                -4.736603e-06 1 1  ON 135
 udH_18                -8.703797e-07 1 1  ON 136
 udH_19                -4.665092e-07 1 1  ON 137
 udH_20                -2.811541e-06 1 1  ON 138
 udH_21                 5.084773e-07 1 1  ON 139
 udH_22                 2.061817e-08 1 1  ON 140
 udH_23                 1.984191e-06 1 1  ON 141
 udH_24                -2.842551e-07 1 1  ON 142
 udH_25                 1.914873e-08 1 1  ON 143
  </optVariables>
   Restore the number of walkers to 21, removing 0 walkers.
</opt>
</optimization-report>
  QMC Execution time = 8.547 secs

=========================================================
  Start QMCFixedSampleLinearOptimize
  File Root qmc.s002 append = no 
=========================================================
  Skip QMCDriver::putQMCInfo 
  Resetting Properties of the walkers 1 x 14

=========================================================
  Start VMC
  File Root qmc.s002 append = no 
=========================================================
Using existing walkers 
  Resetting Properties of the walkers 1 x 14

<vmc function="put">
  qmc_counter=2  my_counter=0
  time step      = 0.5
  blocks         = 20
  steps          = 149
  substeps       = 4
  current        = 0
  target samples = 1e+06
  walkers/mpi    = 21

  stepsbetweensamples = 1
  SpinMoves      = no
<parameter name="blocks" condition="int">20</parameter>
<parameter name="blocks_between_recompute" condition="int">0</parameter>
<parameter name="check_properties" condition="int">100</parameter>
<parameter name="checkproperties" condition="int">100</parameter>
<parameter name="current" condition="int">0</parameter>
<parameter name="dmcwalkersperthread" condition="real">2977</parameter>
<parameter name="maxcpusecs" condition="real">3.6e+05</parameter>
<parameter name="record_configs" condition="int">0</parameter>
<parameter name="record_walkers" condition="int">1</parameter>
<parameter name="recordconfigs" condition="int">0</parameter>
<parameter name="recordwalkers" condition="int">1</parameter>
<parameter name="rewind" condition="int">0</parameter>
<parameter name="samples" condition="real">1e+06</parameter>
<parameter name="samplesperthread" condition="real">2977</parameter>
<parameter name="spinmass" condition="double">1</parameter>
<parameter name="spinmoves" condition="string">no</parameter>
<parameter name="steps" condition="int">149</parameter>
<parameter name="stepsbetweensamples" condition="int">1</parameter>
<parameter name="store_configs" condition="int">0</parameter>
<parameter name="storeconfigs" condition="int">0</parameter>
<parameter name="sub_steps" condition="int">4</parameter>
<parameter name="substeps" condition="int">4</parameter>
<parameter name="tau" condition="au">0.5</parameter>
<parameter name="time_step" condition="au">0.5</parameter>
<parameter name="timestep" condition="au">0.5</parameter>
<parameter name="use_drift" condition="string">no</parameter>
<parameter name="usedrift" condition="string">no</parameter>
<parameter name="walkers" condition="int">1</parameter>
<parameter name="warmup_steps" condition="int">100</parameter>
<parameter name="warmupsteps" condition="int">100</parameter>
  DumpConfig==false Nothing (configurations, state) will be saved.
  Walker Samples are dumped every 1 steps.
</vmc>
    Restarting, cummulative properties:
      energy     = -6.256
      variance   = 0
      r2accepted = 1e-10
      r2proposed = 1e-10
  Set drift_modifier UNR parameter a = 1
 Using QMCCostFunction::QMCCostFunction
  Set drift_modifier UNR parameter a = 1.0000e+00
  EstimatorManagerBase::add replace LocalEnergy estimator.
<optimization-report>
<vmc stage="main" blocks="20">
  Cannot make clones again. Use existing 21 clones
  Initial partition of walkers 0 1 2 3 4 5 6 7 8 9 10 11 12 13 14 15 16 17 18 19 20 21 

  Using Particle by Particle moves
  Walker moves without drift
  Total Sample Size   =1000272
  Walker distribution on root = 0 1 2 3 4 5 6 7 8 9 10 11 12 13 14 15 16 17 18 19 20 21 
  Using Locality Approximation
===== Memory Usage after the buffer registration =====
Available memory on node 0, free + buffers : 517488 MB
Memory footprint by rank 0 on node 0       : 419 MB
==================================================
  Anonymous Buffer size per walker : 19168 Bytes.
MEMORY increase 0 MB VMC::resetRun
====================================================
  SimpleFixedNodeBranch::finalize after a VMC block
    QMC counter        = 2
    time step          = 0.5
    reference energy   = -6.24442
    reference variance = 0.0444966
====================================================
  Execution time = 3.7488e+00
</vmc>
<opt stage="setup">
  <log>
   Reading configurations from h5FileRoot qmc.s002
  QMCCostFunction is created with 21 threads.
  Using Nonlocal PP in Opt: no
   Number of samples loaded to each thread : 2977 2977 2977 2977 2977 2977 2977 2977 2977 2977 2977 2977 2977 2977 2977 2977 2977 2977 2977 2977 2977 
  VMC Eavg = -6.2855e+00
  VMC Evar = 2.5190e-01
  Total weights = 1.0003e+06
  Execution time = 3.4400e+00
  </log>
</opt>
<opt stage="main" walkers="1000272">
  <log>

*****************************************
Building overlap and Hamiltonian matrices
*****************************************

Among totally 144 optimized parameters, largest LM parameter change : 2.4696e-02 at parameter 30

******************************************************************************
Init Cost =  -5.9586e+00    New Cost =  -5.9586e+00  Delta Cost =   2.5381e-05
******************************************************************************

The new set of parameters is valid. Updating the trial wave function!

*****************************************************************************
Applying the update for shift_i =   1.0000e-02     and shift_s =   1.5625e-02
*****************************************************************************
  Execution time = 8.5304e+00
  </log>
  <optVariables href="qmc.s002.opt.xml">
   uu_0                 5.522606e-01 1 1  ON 0
   uu_1                 3.575773e-01 1 1  ON 1
   uu_2                 2.301795e-01 1 1  ON 2
   uu_3                 1.423982e-01 1 1  ON 3
   uu_4                 8.426700e-02 1 1  ON 4
   uu_5                 4.013829e-02 1 1  ON 5
   uu_6                 3.580279e-03 1 1  ON 6
   uu_7                -2.224572e-02 1 1  ON 7
   uu_8                -3.612333e-02 1 1  ON 8
   uu_9                -4.109726e-02 1 1  ON 9
   ud_0                 9.468299e-01 1 1  ON 10
   ud_1                 6.116017e-01 1 1  ON 11
   ud_2                 4.005498e-01 1 1  ON 12
   ud_3                 2.569209e-01 1 1  ON 13
   ud_4                 1.668718e-01 1 1  ON 14
   ud_5                 1.063361e-01 1 1  ON 15
   ud_6                 5.694156e-02 1 1  ON 16
   ud_7                 1.571942e-02 1 1  ON 17
   ud_8                -1.575570e-02 1 1  ON 18
   ud_9                -3.200020e-02 1 1  ON 19
  eSi_0                -4.374389e-01 1 1  ON 20
  eSi_1                -1.748509e-01 1 1  ON 21
  eSi_2                -9.912058e-02 1 1  ON 22
  eSi_3                -3.083519e-03 1 1  ON 23
  eSi_4                 6.098793e-02 1 1  ON 24
  eSi_5                 3.008423e-02 1 1  ON 25
  eSi_6                 2.772175e-02 1 1  ON 26
  eSi_7                 7.381403e-02 1 1  ON 27
  eSi_8                 2.464770e-01 1 1  ON 28
  eSi_9                 1.921338e-01 1 1  ON 29
   eH_0                -5.821944e-01 1 1  ON 30
   eH_1                -5.444289e-01 1 1  ON 31
   eH_2                -4.007074e-01 1 1  ON 32
   eH_3                -2.725003e-01 1 1  ON 33
   eH_4                -1.548064e-01 1 1  ON 34
   eH_5                -5.158882e-02 1 1  ON 35
   eH_6                 5.094895e-02 1 1  ON 36
   eH_7                 1.458174e-01 1 1  ON 37
   eH_8                 1.855651e-01 1 1  ON 38
   eH_9                 1.606715e-01 1 1  ON 39
 uuSi_0                -3.146178e-05 1 1  ON 40
 uuSi_1                -7.897597e-05 1 1  ON 41
 uuSi_2                 4.085692e-05 1 1  ON 42
 uuSi_3                 6.395134e-05 1 1  ON 43
 uuSi_4                 1.651131e-06 1 1  ON 44
 uuSi_5                 1.224679e-05 1 1  ON 45
 uuSi_6                -8.390153e-05 1 1  ON 46
 uuSi_7                 1.188703e-04 1 1  ON 47
 uuSi_8                 3.341005e-05 1 1  ON 48
 uuSi_9                 4.415022e-05 1 1  ON 49
uuSi_10                 5.070586e-05 1 1  ON 50
uuSi_11                -9.297058e-05 1 1  ON 51
uuSi_12                -3.332754e-06 1 1  ON 52
uuSi_13                -5.379611e-05 1 1  ON 53
uuSi_14                 8.918760e-06 1 1  ON 54
uuSi_15                -3.865657e-07 1 1  ON 55
uuSi_16                -4.919839e-05 1 1  ON 56
uuSi_17                -5.767914e-05 1 1  ON 57
uuSi_18                 6.620028e-05 1 1  ON 58
uuSi_19                -3.235630e-06 1 1  ON 59
uuSi_20                 2.354491e-05 1 1  ON 60
uuSi_21                -9.871384e-06 1 1  ON 61
uuSi_22                 9.930010e-07 1 1  ON 62
uuSi_23                -4.133591e-06 1 1  ON 63
uuSi_24                 1.749963e-06 1 1  ON 64
uuSi_25                -2.385347e-07 1 1  ON 65
 udSi_0                -4.602345e-05 1 1  ON 66
 udSi_1                 6.635662e-05 1 1  ON 67
 udSi_2                 5.799897e-05 1 1  ON 68
 udSi_3                 6.544768e-05 1 1  ON 69
 udSi_4                 1.679330e-06 1 1  ON 70
 udSi_5                -9.484416e-06 1 1  ON 71
 udSi_6                 2.069337e-04 1 1  ON 72
 udSi_7                 1.623237e-06 1 1  ON 73
 udSi_8                -1.392370e-05 1 1  ON 74
 udSi_9                -1.303060e-04 1 1  ON 75
udSi_10                 2.841685e-05 1 1  ON 76
udSi_11                -1.736842e-05 1 1  ON 77
udSi_12                 8.567587e-06 1 1  ON 78
udSi_13                -6.832816e-05 1 1  ON 79
udSi_14                -1.242147e-05 1 1  ON 80
udSi_15                 2.631620e-07 1 1  ON 81
udSi_16                 2.029151e-04 1 1  ON 82
udSi_17                -9.944920e-05 1 1  ON 83
udSi_18                 1.671774e-05 1 1  ON 84
udSi_19                -4.052877e-06 1 1  ON 85
udSi_20                -1.123337e-05 1 1  ON 86
udSi_21                 3.040021e-06 1 1  ON 87
udSi_22                -5.993271e-08 1 1  ON 88
udSi_23                 2.802687e-06 1 1  ON 89
udSi_24                -9.055013e-07 1 1  ON 90
udSi_25                 8.238266e-08 1 1  ON 91
  uuH_0                -1.904758e-05 1 1  ON 92
  uuH_1                 2.177256e-06 1 1  ON 93
  uuH_2                 1.633581e-05 1 1  ON 94
  uuH_3                 3.810139e-06 1 1  ON 95
  uuH_4                -1.859532e-06 1 1  ON 96
  uuH_5                 6.424263e-07 1 1  ON 97
  uuH_6                 2.139930e-05 1 1  ON 98
  uuH_7                 9.991729e-06 1 1  ON 99
  uuH_8                 4.591148e-06 1 1  ON 100
  uuH_9                 3.148812e-06 1 1  ON 101
 uuH_10                 1.361865e-06 1 1  ON 102
 uuH_11                -5.631463e-06 1 1  ON 103
 uuH_12                -2.603376e-07 1 1  ON 104
 uuH_13                -1.191886e-05 1 1  ON 105
 uuH_14                -5.642426e-07 1 1  ON 106
 uuH_15                 4.855790e-08 1 1  ON 107
 uuH_16                -5.486156e-06 1 1  ON 108
 uuH_17                -1.054373e-05 1 1  ON 109
 uuH_18                 2.463469e-06 1 1  ON 110
 uuH_19                -1.340741e-07 1 1  ON 111
 uuH_20                 7.993840e-06 1 1  ON 112
 uuH_21                -1.750587e-07 1 1  ON 113
 uuH_22                 2.445239e-08 1 1  ON 114
 uuH_23                -2.334214e-06 1 1  ON 115
 uuH_24                 1.160043e-07 1 1  ON 116
 uuH_25                -1.659901e-08 1 1  ON 117
  udH_0                 5.660567e-06 1 1  ON 118
  udH_1                -9.830815e-06 1 1  ON 119
  udH_2                -1.236251e-05 1 1  ON 120
  udH_3                -4.655956e-06 1 1  ON 121
  udH_4                 1.227551e-06 1 1  ON 122
  udH_5                 6.661165e-06 1 1  ON 123
  udH_6                -2.016025e-05 1 1  ON 124
  udH_7                -2.850489e-06 1 1  ON 125
  udH_8                -8.641791e-06 1 1  ON 126
  udH_9                 1.217317e-05 1 1  ON 127
 udH_10                -2.861534e-06 1 1  ON 128
 udH_11                 6.146721e-06 1 1  ON 129
 udH_12                 1.534994e-06 1 1  ON 130
 udH_13                -3.479905e-06 1 1  ON 131
 udH_14                -1.319739e-06 1 1  ON 132
 udH_15                -3.071416e-08 1 1  ON 133
 udH_16                 9.499725e-06 1 1  ON 134
 udH_17                -4.386407e-06 1 1  ON 135
 udH_18                -1.351039e-06 1 1  ON 136
 udH_19                -5.039508e-07 1 1  ON 137
 udH_20                -3.115300e-06 1 1  ON 138
 udH_21                 6.030612e-07 1 1  ON 139
 udH_22                 1.621287e-08 1 1  ON 140
 udH_23                 2.177285e-06 1 1  ON 141
 udH_24                -3.199933e-07 1 1  ON 142
 udH_25                 2.345264e-08 1 1  ON 143
  </optVariables>
   Restore the number of walkers to 21, removing 0 walkers.
</opt>
</optimization-report>
  QMC Execution time = 8.534 secs

=========================================================
  Start QMCFixedSampleLinearOptimize
  File Root qmc.s003 append = no 
=========================================================
  Skip QMCDriver::putQMCInfo 
  Resetting Properties of the walkers 1 x 14

=========================================================
  Start VMC
  File Root qmc.s003 append = no 
=========================================================
Using existing walkers 
  Resetting Properties of the walkers 1 x 14

<vmc function="put">
  qmc_counter=3  my_counter=0
  time step      = 0.5
  blocks         = 20
  steps          = 149
  substeps       = 4
  current        = 0
  target samples = 1e+06
  walkers/mpi    = 21

  stepsbetweensamples = 1
  SpinMoves      = no
<parameter name="blocks" condition="int">20</parameter>
<parameter name="blocks_between_recompute" condition="int">0</parameter>
<parameter name="check_properties" condition="int">100</parameter>
<parameter name="checkproperties" condition="int">100</parameter>
<parameter name="current" condition="int">0</parameter>
<parameter name="dmcwalkersperthread" condition="real">2977</parameter>
<parameter name="maxcpusecs" condition="real">3.6e+05</parameter>
<parameter name="record_configs" condition="int">0</parameter>
<parameter name="record_walkers" condition="int">1</parameter>
<parameter name="recordconfigs" condition="int">0</parameter>
<parameter name="recordwalkers" condition="int">1</parameter>
<parameter name="rewind" condition="int">0</parameter>
<parameter name="samples" condition="real">1e+06</parameter>
<parameter name="samplesperthread" condition="real">2977</parameter>
<parameter name="spinmass" condition="double">1</parameter>
<parameter name="spinmoves" condition="string">no</parameter>
<parameter name="steps" condition="int">149</parameter>
<parameter name="stepsbetweensamples" condition="int">1</parameter>
<parameter name="store_configs" condition="int">0</parameter>
<parameter name="storeconfigs" condition="int">0</parameter>
<parameter name="sub_steps" condition="int">4</parameter>
<parameter name="substeps" condition="int">4</parameter>
<parameter name="tau" condition="au">0.5</parameter>
<parameter name="time_step" condition="au">0.5</parameter>
<parameter name="timestep" condition="au">0.5</parameter>
<parameter name="use_drift" condition="string">no</parameter>
<parameter name="usedrift" condition="string">no</parameter>
<parameter name="walkers" condition="int">1</parameter>
<parameter name="warmup_steps" condition="int">100</parameter>
<parameter name="warmupsteps" condition="int">100</parameter>
  DumpConfig==false Nothing (configurations, state) will be saved.
  Walker Samples are dumped every 1 steps.
</vmc>
    Restarting, cummulative properties:
      energy     = -6.252
      variance   = 0
      r2accepted = 1e-10
      r2proposed = 1e-10
  Set drift_modifier UNR parameter a = 1
 Using QMCCostFunction::QMCCostFunction
  Set drift_modifier UNR parameter a = 1.0000e+00
  EstimatorManagerBase::add replace LocalEnergy estimator.
<optimization-report>
<vmc stage="main" blocks="20">
  Cannot make clones again. Use existing 21 clones
  Initial partition of walkers 0 1 2 3 4 5 6 7 8 9 10 11 12 13 14 15 16 17 18 19 20 21 

  Using Particle by Particle moves
  Walker moves without drift
  Total Sample Size   =1000272
  Walker distribution on root = 0 1 2 3 4 5 6 7 8 9 10 11 12 13 14 15 16 17 18 19 20 21 
  Using Locality Approximation
===== Memory Usage after the buffer registration =====
Available memory on node 0, free + buffers : 517495 MB
Memory footprint by rank 0 on node 0       : 419 MB
==================================================
  Anonymous Buffer size per walker : 19168 Bytes.
MEMORY increase 0 MB VMC::resetRun
====================================================
  SimpleFixedNodeBranch::finalize after a VMC block
    QMC counter        = 3
    time step          = 0.5
    reference energy   = -6.26639
    reference variance = 0.0379599
====================================================
  Execution time = 3.7507e+00
</vmc>
<opt stage="setup">
  <log>
   Reading configurations from h5FileRoot qmc.s003
  QMCCostFunction is created with 21 threads.
  Using Nonlocal PP in Opt: no
   Number of samples loaded to each thread : 2977 2977 2977 2977 2977 2977 2977 2977 2977 2977 2977 2977 2977 2977 2977 2977 2977 2977 2977 2977 2977 
  VMC Eavg = -6.2858e+00
  VMC Evar = 2.5579e-01
  Total weights = 1.0003e+06
  Execution time = 3.4648e+00
  </log>
</opt>
<opt stage="main" walkers="1000272">
  <log>

*****************************************
Building overlap and Hamiltonian matrices
*****************************************

Among totally 144 optimized parameters, largest LM parameter change : 1.9654e-02 at parameter 30

******************************************************************************
Init Cost =  -5.9587e+00    New Cost =  -5.9587e+00  Delta Cost =   3.1890e-06
******************************************************************************

The new set of parameters is valid. Updating the trial wave function!

*****************************************************************************
Applying the update for shift_i =   1.0000e-02     and shift_s =   3.9062e-03
*****************************************************************************
  Execution time = 8.5528e+00
  </log>
  <optVariables href="qmc.s003.opt.xml">
   uu_0                 5.450425e-01 1 1  ON 0
   uu_1                 3.516598e-01 1 1  ON 1
   uu_2                 2.324755e-01 1 1  ON 2
   uu_3                 1.491155e-01 1 1  ON 3
   uu_4                 9.036655e-02 1 1  ON 4
   uu_5                 4.556384e-02 1 1  ON 5
   uu_6                 9.016626e-03 1 1  ON 6
   uu_7                -1.868323e-02 1 1  ON 7
   uu_8                -3.332977e-02 1 1  ON 8
   uu_9                -3.820522e-02 1 1  ON 9
   ud_0                 9.477073e-01 1 1  ON 10
   ud_1                 6.150415e-01 1 1  ON 11
   ud_2                 4.044345e-01 1 1  ON 12
   ud_3                 2.619743e-01 1 1  ON 13
   ud_4                 1.723161e-01 1 1  ON 14
   ud_5                 1.112743e-01 1 1  ON 15
   ud_6                 6.233074e-02 1 1  ON 16
   ud_7                 2.174716e-02 1 1  ON 17
   ud_8                -9.676920e-03 1 1  ON 18
   ud_9                -2.755215e-02 1 1  ON 19
  eSi_0                -4.456788e-01 1 1  ON 20
  eSi_1                -1.760792e-01 1 1  ON 21
  eSi_2                -1.050657e-01 1 1  ON 22
  eSi_3                -1.104726e-02 1 1  ON 23
  eSi_4                 5.375354e-02 1 1  ON 24
  eSi_5                 3.047967e-02 1 1  ON 25
  eSi_6                 2.688115e-02 1 1  ON 26
  eSi_7                 7.143740e-02 1 1  ON 27
  eSi_8                 2.502737e-01 1 1  ON 28
  eSi_9                 2.081862e-01 1 1  ON 29
   eH_0                -6.018479e-01 1 1  ON 30
   eH_1                -5.631702e-01 1 1  ON 31
   eH_2                -4.167796e-01 1 1  ON 32
   eH_3                -2.841429e-01 1 1  ON 33
   eH_4                -1.627732e-01 1 1  ON 34
   eH_5                -6.001056e-02 1 1  ON 35
   eH_6                 4.394116e-02 1 1  ON 36
   eH_7                 1.387279e-01 1 1  ON 37
   eH_8                 1.788517e-01 1 1  ON 38
   eH_9                 1.528155e-01 1 1  ON 39
 uuSi_0                -2.793435e-05 1 1  ON 40
 uuSi_1                -6.483114e-05 1 1  ON 41
 uuSi_2                 4.850561e-05 1 1  ON 42
 uuSi_3                 5.845147e-05 1 1  ON 43
 uuSi_4                 1.639167e-06 1 1  ON 44
 uuSi_5                 1.197076e-05 1 1  ON 45
 uuSi_6                -6.362865e-05 1 1  ON 46
 uuSi_7                 1.076478e-04 1 1  ON 47
 uuSi_8                 3.852664e-05 1 1  ON 48
 uuSi_9                 2.352413e-05 1 1  ON 49
uuSi_10                 5.092278e-05 1 1  ON 50
uuSi_11                -9.420614e-05 1 1  ON 51
uuSi_12                -3.402335e-06 1 1  ON 52
uuSi_13                -4.238572e-05 1 1  ON 53
uuSi_14                 8.674966e-06 1 1  ON 54
uuSi_15                -3.696741e-07 1 1  ON 55
uuSi_16                -3.691559e-05 1 1  ON 56
uuSi_17                -5.349660e-05 1 1  ON 57
uuSi_18                 6.477859e-05 1 1  ON 58
uuSi_19                -3.448812e-06 1 1  ON 59
uuSi_20                 1.864907e-05 1 1  ON 60
uuSi_21                -9.228612e-06 1 1  ON 61
uuSi_22                 9.686046e-07 1 1  ON 62
uuSi_23                -3.249087e-06 1 1  ON 63
uuSi_24                 1.572457e-06 1 1  ON 64
uuSi_25                -2.224913e-07 1 1  ON 65
 udSi_0                -5.377216e-05 1 1  ON 66
 udSi_1                 4.030363e-05 1 1  ON 67
 udSi_2                 5.561709e-05 1 1  ON 68
 udSi_3                 7.709879e-05 1 1  ON 69
 udSi_4                 3.003961e-06 1 1  ON 70
 udSi_5                -8.232454e-06 1 1  ON 71
 udSi_6                 1.698442e-04 1 1  ON 72
 udSi_7                 2.575076e-05 1 1  ON 73
 udSi_8                -1.507342e-05 1 1  ON 74
 udSi_9                -9.840025e-05 1 1  ON 75
udSi_10                 3.558287e-05 1 1  ON 76
udSi_11                -2.566133e-05 1 1  ON 77
udSi_12                 9.120530e-06 1 1  ON 78
udSi_13                -8.386404e-05 1 1  ON 79
udSi_14                -1.169567e-05 1 1  ON 80
udSi_15                 1.651278e-07 1 1  ON 81
udSi_16                 1.746604e-04 1 1  ON 82
udSi_17                -1.054806e-04 1 1  ON 83
udSi_18                 2.170455e-05 1 1  ON 84
udSi_19                -4.511673e-06 1 1  ON 85
udSi_20                -2.267271e-06 1 1  ON 86
udSi_21                 2.185130e-06 1 1  ON 87
udSi_22                 4.616755e-08 1 1  ON 88
udSi_23                 8.606487e-07 1 1  ON 89
udSi_24                -7.179393e-07 1 1  ON 90
udSi_25                 5.696505e-08 1 1  ON 91
  uuH_0                -2.188710e-05 1 1  ON 92
  uuH_1                 2.171270e-06 1 1  ON 93
  uuH_2                 1.802237e-05 1 1  ON 94
  uuH_3                 4.670942e-06 1 1  ON 95
  uuH_4                -2.141760e-06 1 1  ON 96
  uuH_5                 8.824967e-07 1 1  ON 97
  uuH_6                 2.396105e-05 1 1  ON 98
  uuH_7                 7.323934e-06 1 1  ON 99
  uuH_8                 5.289711e-06 1 1  ON 100
  uuH_9                 5.216934e-06 1 1  ON 101
 uuH_10                 1.371739e-06 1 1  ON 102
 uuH_11                -3.905631e-06 1 1  ON 103
 uuH_12                -6.700822e-07 1 1  ON 104
 uuH_13                -1.214440e-05 1 1  ON 105
 uuH_14                -4.677203e-07 1 1  ON 106
 uuH_15                 7.583228e-08 1 1  ON 107
 uuH_16                -1.123534e-05 1 1  ON 108
 uuH_17                -8.277152e-06 1 1  ON 109
 uuH_18                 4.831788e-09 1 1  ON 110
 uuH_19                 3.099129e-07 1 1  ON 111
 uuH_20                 9.402742e-06 1 1  ON 112
 uuH_21                 9.635026e-08 1 1  ON 113
 uuH_22                -4.163082e-08 1 1  ON 114
 uuH_23                -2.734998e-06 1 1  ON 115
 uuH_24                 7.693388e-08 1 1  ON 116
 uuH_25                -4.875276e-09 1 1  ON 117
  udH_0                 5.506513e-06 1 1  ON 118
  udH_1                -9.541229e-06 1 1  ON 119
  udH_2                -1.157662e-05 1 1  ON 120
  udH_3                -4.499423e-06 1 1  ON 121
  udH_4                 1.142625e-06 1 1  ON 122
  udH_5                 6.683454e-06 1 1  ON 123
  udH_6                -2.002718e-05 1 1  ON 124
  udH_7                -1.267335e-06 1 1  ON 125
  udH_8                -7.749282e-06 1 1  ON 126
  udH_9                 1.200191e-05 1 1  ON 127
 udH_10                -2.491970e-06 1 1  ON 128
 udH_11                 3.978283e-06 1 1  ON 129
 udH_12                 1.455115e-06 1 1  ON 130
 udH_13                -4.326404e-06 1 1  ON 131
 udH_14                -1.214579e-06 1 1  ON 132
 udH_15                -3.096854e-08 1 1  ON 133
 udH_16                 1.090822e-05 1 1  ON 134
 udH_17                -6.559512e-06 1 1  ON 135
 udH_18                 1.098765e-06 1 1  ON 136
 udH_19                -7.005943e-07 1 1  ON 137
 udH_20                -3.020746e-06 1 1  ON 138
 udH_21                 2.272825e-07 1 1  ON 139
 udH_22                 6.596828e-08 1 1  ON 140
 udH_23                 2.133730e-06 1 1  ON 141
 udH_24                -2.341761e-07 1 1  ON 142
 udH_25                 8.856414e-09 1 1  ON 143
  </optVariables>
   Restore the number of walkers to 21, removing 0 walkers.
</opt>
</optimization-report>
  QMC Execution time = 8.556 secs

=========================================================
  Start QMCFixedSampleLinearOptimize
  File Root qmc.s004 append = no 
=========================================================
  Skip QMCDriver::putQMCInfo 
  Resetting Properties of the walkers 1 x 14

=========================================================
  Start VMC
  File Root qmc.s004 append = no 
=========================================================
Using existing walkers 
  Resetting Properties of the walkers 1 x 14

<vmc function="put">
  qmc_counter=4  my_counter=0
  time step      = 0.5
  blocks         = 20
  steps          = 149
  substeps       = 4
  current        = 0
  target samples = 1e+06
  walkers/mpi    = 21

  stepsbetweensamples = 1
  SpinMoves      = no
<parameter name="blocks" condition="int">20</parameter>
<parameter name="blocks_between_recompute" condition="int">0</parameter>
<parameter name="check_properties" condition="int">100</parameter>
<parameter name="checkproperties" condition="int">100</parameter>
<parameter name="current" condition="int">0</parameter>
<parameter name="dmcwalkersperthread" condition="real">2977</parameter>
<parameter name="maxcpusecs" condition="real">3.6e+05</parameter>
<parameter name="record_configs" condition="int">0</parameter>
<parameter name="record_walkers" condition="int">1</parameter>
<parameter name="recordconfigs" condition="int">0</parameter>
<parameter name="recordwalkers" condition="int">1</parameter>
<parameter name="rewind" condition="int">0</parameter>
<parameter name="samples" condition="real">1e+06</parameter>
<parameter name="samplesperthread" condition="real">2977</parameter>
<parameter name="spinmass" condition="double">1</parameter>
<parameter name="spinmoves" condition="string">no</parameter>
<parameter name="steps" condition="int">149</parameter>
<parameter name="stepsbetweensamples" condition="int">1</parameter>
<parameter name="store_configs" condition="int">0</parameter>
<parameter name="storeconfigs" condition="int">0</parameter>
<parameter name="sub_steps" condition="int">4</parameter>
<parameter name="substeps" condition="int">4</parameter>
<parameter name="tau" condition="au">0.5</parameter>
<parameter name="time_step" condition="au">0.5</parameter>
<parameter name="timestep" condition="au">0.5</parameter>
<parameter name="use_drift" condition="string">no</parameter>
<parameter name="usedrift" condition="string">no</parameter>
<parameter name="walkers" condition="int">1</parameter>
<parameter name="warmup_steps" condition="int">100</parameter>
<parameter name="warmupsteps" condition="int">100</parameter>
  DumpConfig==false Nothing (configurations, state) will be saved.
  Walker Samples are dumped every 1 steps.
</vmc>
    Restarting, cummulative properties:
      energy     = -6.256
      variance   = 0
      r2accepted = 1e-10
      r2proposed = 1e-10
  Set drift_modifier UNR parameter a = 1
 Using QMCCostFunction::QMCCostFunction
  Set drift_modifier UNR parameter a = 1.0000e+00
  EstimatorManagerBase::add replace LocalEnergy estimator.
<optimization-report>
<vmc stage="main" blocks="20">
  Cannot make clones again. Use existing 21 clones
  Initial partition of walkers 0 1 2 3 4 5 6 7 8 9 10 11 12 13 14 15 16 17 18 19 20 21 

  Using Particle by Particle moves
  Walker moves without drift
  Total Sample Size   =1000272
  Walker distribution on root = 0 1 2 3 4 5 6 7 8 9 10 11 12 13 14 15 16 17 18 19 20 21 
  Using Locality Approximation
===== Memory Usage after the buffer registration =====
Available memory on node 0, free + buffers : 517471 MB
Memory footprint by rank 0 on node 0       : 419 MB
==================================================
  Anonymous Buffer size per walker : 19168 Bytes.
MEMORY increase 0 MB VMC::resetRun
====================================================
  SimpleFixedNodeBranch::finalize after a VMC block
    QMC counter        = 4
    time step          = 0.5
    reference energy   = -6.25539
    reference variance = 0.033677
====================================================
  Execution time = 3.7419e+00
</vmc>
<opt stage="setup">
  <log>
   Reading configurations from h5FileRoot qmc.s004
  QMCCostFunction is created with 21 threads.
  Using Nonlocal PP in Opt: no
   Number of samples loaded to each thread : 2977 2977 2977 2977 2977 2977 2977 2977 2977 2977 2977 2977 2977 2977 2977 2977 2977 2977 2977 2977 2977 
  VMC Eavg = -6.2852e+00
  VMC Evar = 2.4551e-01
  Total weights = 1.0003e+06
  Execution time = 3.4577e+00
  </log>
</opt>
<opt stage="main" walkers="1000272">
  <log>

*****************************************
Building overlap and Hamiltonian matrices
*****************************************

Among totally 144 optimized parameters, largest LM parameter change : 1.8248e-02 at parameter 30

******************************************************************************
Init Cost =  -5.9587e+00    New Cost =  -5.9589e+00  Delta Cost =  -2.2211e-04
******************************************************************************

The new set of parameters is valid. Updating the trial wave function!

*****************************************************************************
Applying the update for shift_i =   1.0000e-02     and shift_s =   3.9062e-03
*****************************************************************************
  Execution time = 8.5450e+00
  </log>
  <optVariables href="qmc.s004.opt.xml">
   uu_0                 5.393651e-01 1 1  ON 0
   uu_1                 3.492921e-01 1 1  ON 1
   uu_2                 2.337752e-01 1 1  ON 2
   uu_3                 1.522030e-01 1 1  ON 3
   uu_4                 9.604096e-02 1 1  ON 4
   uu_5                 5.194038e-02 1 1  ON 5
   uu_6                 1.451719e-02 1 1  ON 6
   uu_7                -1.263225e-02 1 1  ON 7
   uu_8                -2.787235e-02 1 1  ON 8
   uu_9                -3.550347e-02 1 1  ON 9
   ud_0                 9.452629e-01 1 1  ON 10
   ud_1                 6.153034e-01 1 1  ON 11
   ud_2                 4.099164e-01 1 1  ON 12
   ud_3                 2.702540e-01 1 1  ON 13
   ud_4                 1.813217e-01 1 1  ON 14
   ud_5                 1.198515e-01 1 1  ON 15
   ud_6                 6.990895e-02 1 1  ON 16
   ud_7                 2.760383e-02 1 1  ON 17
   ud_8                -5.369876e-03 1 1  ON 18
   ud_9                -2.449272e-02 1 1  ON 19
  eSi_0                -4.523419e-01 1 1  ON 20
  eSi_1                -1.814318e-01 1 1  ON 21
  eSi_2                -1.059728e-01 1 1  ON 22
  eSi_3                -1.667328e-02 1 1  ON 23
  eSi_4                 4.534170e-02 1 1  ON 24
  eSi_5                 2.850314e-02 1 1  ON 25
  eSi_6                 2.426834e-02 1 1  ON 26
  eSi_7                 7.350982e-02 1 1  ON 27
  eSi_8                 2.538506e-01 1 1  ON 28
  eSi_9                 2.210560e-01 1 1  ON 29
   eH_0                -6.200955e-01 1 1  ON 30
   eH_1                -5.786259e-01 1 1  ON 31
   eH_2                -4.302692e-01 1 1  ON 32
   eH_3                -2.950647e-01 1 1  ON 33
   eH_4                -1.726526e-01 1 1  ON 34
   eH_5                -6.770515e-02 1 1  ON 35
   eH_6                 3.683974e-02 1 1  ON 36
   eH_7                 1.319310e-01 1 1  ON 37
   eH_8                 1.700930e-01 1 1  ON 38
   eH_9                 1.489235e-01 1 1  ON 39
 uuSi_0                -3.359727e-05 1 1  ON 40
 uuSi_1                -7.698674e-05 1 1  ON 41
 uuSi_2                 4.418528e-05 1 1  ON 42
 uuSi_3                 7.113030e-05 1 1  ON 43
 uuSi_4                 4.501243e-06 1 1  ON 44
 uuSi_5                 1.190119e-05 1 1  ON 45
 uuSi_6                -7.193863e-05 1 1  ON 46
 uuSi_7                 1.066251e-04 1 1  ON 47
 uuSi_8                 2.698466e-05 1 1  ON 48
 uuSi_9                 3.754109e-05 1 1  ON 49
uuSi_10                 5.801551e-05 1 1  ON 50
uuSi_11                -8.981758e-05 1 1  ON 51
uuSi_12                -4.894014e-07 1 1  ON 52
uuSi_13                -5.981525e-05 1 1  ON 53
uuSi_14                 5.648757e-06 1 1  ON 54
uuSi_15                -3.418598e-07 1 1  ON 55
uuSi_16                -4.307274e-05 1 1  ON 56
uuSi_17                -6.793047e-05 1 1  ON 57
uuSi_18                 6.550870e-05 1 1  ON 58
uuSi_19                -4.285725e-06 1 1  ON 59
uuSi_20                 2.555586e-05 1 1  ON 60
uuSi_21                -8.992570e-06 1 1  ON 61
uuSi_22                 9.771226e-07 1 1  ON 62
uuSi_23                -4.928344e-06 1 1  ON 63
uuSi_24                 1.614606e-06 1 1  ON 64
uuSi_25                -2.218531e-07 1 1  ON 65
 udSi_0                -4.907235e-05 1 1  ON 66
 udSi_1                 9.419955e-05 1 1  ON 67
 udSi_2                 6.922619e-05 1 1  ON 68
 udSi_3                 5.831120e-05 1 1  ON 69
 udSi_4                -1.862174e-06 1 1  ON 70
 udSi_5                -1.155416e-05 1 1  ON 71
 udSi_6                 2.518057e-04 1 1  ON 72
 udSi_7                -6.421359e-06 1 1  ON 73
 udSi_8                -4.911484e-06 1 1  ON 74
 udSi_9                -1.567201e-04 1 1  ON 75
udSi_10                 2.116098e-05 1 1  ON 76
udSi_11                -1.793464e-05 1 1  ON 77
udSi_12                 5.934787e-06 1 1  ON 78
udSi_13                -6.138231e-05 1 1  ON 79
udSi_14                -1.112373e-05 1 1  ON 80
udSi_15                 3.566226e-07 1 1  ON 81
udSi_16                 2.239887e-04 1 1  ON 82
udSi_17                -9.613090e-05 1 1  ON 83
udSi_18                 1.519198e-05 1 1  ON 84
udSi_19                -2.954196e-06 1 1  ON 85
udSi_20                -1.541389e-05 1 1  ON 86
udSi_21                 3.180872e-06 1 1  ON 87
udSi_22                -1.625401e-07 1 1  ON 88
udSi_23                 3.615468e-06 1 1  ON 89
udSi_24                -9.650912e-07 1 1  ON 90
udSi_25                 9.747578e-08 1 1  ON 91
  uuH_0                -1.918148e-05 1 1  ON 92
  uuH_1                 8.937735e-06 1 1  ON 93
  uuH_2                 1.966045e-05 1 1  ON 94
  uuH_3                 2.618454e-06 1 1  ON 95
  uuH_4                -2.523381e-06 1 1  ON 96
  uuH_5                 1.050112e-06 1 1  ON 97
  uuH_6                 3.508898e-05 1 1  ON 98
  uuH_7                 4.794430e-06 1 1  ON 99
  uuH_8                 6.285523e-06 1 1  ON 100
  uuH_9                -7.054012e-06 1 1  ON 101
 uuH_10                 1.213471e-07 1 1  ON 102
 uuH_11                -4.791389e-06 1 1  ON 103
 uuH_12                -6.136609e-07 1 1  ON 104
 uuH_13                -8.845676e-06 1 1  ON 105
 uuH_14                -7.000880e-07 1 1  ON 106
 uuH_15                 8.903734e-08 1 1  ON 107
 uuH_16                 4.701756e-06 1 1  ON 108
 uuH_17                -9.802561e-06 1 1  ON 109
 uuH_18                 8.008971e-07 1 1  ON 110
 uuH_19                 1.489697e-07 1 1  ON 111
 uuH_20                 5.614497e-06 1 1  ON 112
 uuH_21                 2.456863e-07 1 1  ON 113
 uuH_22                -4.469862e-08 1 1  ON 114
 uuH_23                -1.791486e-06 1 1  ON 115
 uuH_24                 6.228669e-09 1 1  ON 116
 uuH_25                 1.490522e-09 1 1  ON 117
  udH_0                 5.794173e-06 1 1  ON 118
  udH_1                -9.288481e-06 1 1  ON 119
  udH_2                -1.198002e-05 1 1  ON 120
  udH_3                -5.043769e-06 1 1  ON 121
  udH_4                 1.010809e-06 1 1  ON 122
  udH_5                 7.019181e-06 1 1  ON 123
  udH_6                -1.981940e-05 1 1  ON 124
  udH_7                -2.769770e-06 1 1  ON 125
  udH_8                -7.288376e-06 1 1  ON 126
  udH_9                 1.155867e-05 1 1  ON 127
 udH_10                -3.148649e-06 1 1  ON 128
 udH_11                 5.143309e-06 1 1  ON 129
 udH_12                 1.124329e-06 1 1  ON 130
 udH_13                -2.602489e-06 1 1  ON 131
 udH_14                -9.186329e-07 1 1  ON 132
 udH_15                -2.911461e-08 1 1  ON 133
 udH_16                 1.082216e-05 1 1  ON 134
 udH_17                -3.706282e-06 1 1  ON 135
 udH_18                -7.541949e-07 1 1  ON 136
 udH_19                -3.853455e-07 1 1  ON 137
 udH_20                -3.842600e-06 1 1  ON 138
 udH_21                 4.384298e-07 1 1  ON 139
 udH_22                 2.485795e-08 1 1  ON 140
 udH_23                 2.422010e-06 1 1  ON 141
 udH_24                -2.939687e-07 1 1  ON 142
 udH_25                 1.845460e-08 1 1  ON 143
  </optVariables>
   Restore the number of walkers to 21, removing 0 walkers.
</opt>
</optimization-report>
  QMC Execution time = 8.548 secs
BRANCH resetRun
  Continue with the same input as the previous block.
 SimpleFixedNodeBranch::resetRun detected changes in <parameter>'s 
 BranchMode : 0000001100 0000001100
 iParam (old):                100                 1                 4                 0                 0                 0                 1                 0
 iParam (new):                100                 1                 4                 0                 0                 0                 1                 0
 vParam (old):                0.5               0.1                 1                 1                 1                 1                 1                 1                 1                 0                 0                 1                10                 1                 1                 1                 1
 vParam (new):                0.5               0.1                 1                 1                 1                 1                 1                 1                 1                 0                 0                 1                10                 1                 1                 1                 1

=========================================================
  Start VMC
  File Root qmc.s005 append = no 
=========================================================
Resetting walkers
  Using the current 21 walkers.
  Total number of walkers: 336
  Total weight: 336
  Resetting Properties of the walkers 1 x 14

<vmc function="put">
  qmc_counter=0  my_counter=0
  time step      = 0.5
  blocks         = 400
  steps          = 1
  substeps       = 50
  current        = 0
  target samples = 2520
  walkers/mpi    = 21

  stepsbetweensamples = 50
  SpinMoves      = no
<parameter name="blocks" condition="int">400</parameter>
<parameter name="blocks_between_recompute" condition="int">0</parameter>
<parameter name="check_properties" condition="int">100</parameter>
<parameter name="checkproperties" condition="int">100</parameter>
<parameter name="current" condition="int">0</parameter>
<parameter name="dmcwalkersperthread" condition="real">8</parameter>
<parameter name="maxcpusecs" condition="real">360000</parameter>
<parameter name="record_configs" condition="int">0</parameter>
<parameter name="record_walkers" condition="int">50</parameter>
<parameter name="recordconfigs" condition="int">0</parameter>
<parameter name="recordwalkers" condition="int">50</parameter>
<parameter name="rewind" condition="int">0</parameter>
<parameter name="samples" condition="real">2520</parameter>
<parameter name="samplesperthread" condition="real">8</parameter>
<parameter name="spinmass" condition="double">1</parameter>
<parameter name="spinmoves" condition="string">no</parameter>
<parameter name="steps" condition="int">1</parameter>
<parameter name="stepsbetweensamples" condition="int">50</parameter>
<parameter name="store_configs" condition="int">0</parameter>
<parameter name="storeconfigs" condition="int">0</parameter>
<parameter name="sub_steps" condition="int">50</parameter>
<parameter name="substeps" condition="int">50</parameter>
<parameter name="tau" condition="au">0.5</parameter>
<parameter name="time_step" condition="au">0.5</parameter>
<parameter name="timestep" condition="au">0.5</parameter>
<parameter name="use_drift" condition="string">no</parameter>
<parameter name="usedrift" condition="string">no</parameter>
<parameter name="walkers" condition="int">21</parameter>
<parameter name="warmup_steps" condition="int">100</parameter>
<parameter name="warmupsteps" condition="int">100</parameter>
  DumpConfig==true Configurations are dumped to config.h5 with a period of 400 blocks
  Walker Samples are dumped every 50 steps.
</vmc>
  Set drift_modifier UNR parameter a = 1
  EstimatorManagerBase::add replace LocalEnergy estimator.
  Cannot make clones again. Use existing 21 clones
  Initial partition of walkers 0 1 2 3 4 5 6 7 8 9 10 11 12 13 14 15 16 17 18 19 20 21 

  Using Particle by Particle moves
  Walker moves without drift
  Total Sample Size   =2688
  Walker distribution on root = 0 1 2 3 4 5 6 7 8 9 10 11 12 13 14 15 16 17 18 19 20 21 
  Using Locality Approximation
===== Memory Usage after the buffer registration =====
Available memory on node 0, free + buffers : 517487 MB
Memory footprint by rank 0 on node 0       : 419 MB
==================================================
  Anonymous Buffer size per walker : 19168 Bytes.
MEMORY increase 0 MB VMC::resetRun
  samples are written to the config.h5
====================================================
  SimpleFixedNodeBranch::finalize after a VMC block
    QMC counter        = 5
    time step          = 0.5
    reference energy   = -6.26975
    reference variance = 0.0397016
====================================================
  QMC Execution time = 5.349 secs
BRANCH resetRun
 SimpleFixedNodeBranch::resetRun detected changes in <parameter>'s 
 BranchMode : 0000001100 0000001100
 iParam (old):                100                 1                 5              2520                 0                 0                 1                 0
 iParam (new):                500                 1                 5              2520                 0                 0                 1                 0
 vParam (old):                0.5               0.1      -6.269750747      -6.269750747                 1                 1                 1                 1     0.03970159346      -6.269750747                 1                 1                10                 1                 1                 1                 1
 vParam (new):              0.001               0.1      -6.269750747      -6.269750747                 1                 1                 1                 1     0.03970159346      -6.269750747                 1                 1                10                 1                 1                 1                 1

=========================================================
  Start DMC
  File Root qmc.s006 append = no 
=========================================================
Using existing walkers 
  Resetting Properties of the walkers 1 x 14
  Set drift_modifier UNR parameter a = 1
  EstimatorManagerBase::add replace LocalEnergy estimator.
  Cannot make clones again. Use existing 21 clones
  Total number of walkers: 2688
  Total weight: 2688
  Creating WalkerController: target  number of walkers = 2520
  Using WalkerControlMPI for dynamic population control.
  START ALL OVER 
  WalkerControlBase parameters 
    maxCopy = 2
    Max Walkers per MPI rank 315
    Min Walkers per MPI rank 32
    Using non-blocking send/recv
  QMC counter      = 6
  time step        = 0.001
  effective time step = 0.001
  trial energy     = -6.269750747
  reference energy = -6.269750747
  Feedback = 1
  reference variance = 0.03970159346
  target walkers = 2520
  branching cutoff scheme classic
  branch cutoff = 50 75
  Max and minimum walkers per node= 315 32
  QMC Status (BranchMode) = 0000001101
  Initial partition of walkers on a node: 0 8 16 24 32 40 48 56 64 72 80 88 96 104 112 120 128 136 144 152 160 168 
  Updates by particle-by-particle moves
  DMC moves are rejected when a node crossing is detected
  Using Non-local T-moves v1, M. Casula et al., JCP 132, 154113 (2010)
===== Memory Usage after the buffer registration =====
Available memory on node 0, free + buffers : 517483 MB
Memory footprint by rank 0 on node 0       : 419 MB
==================================================
SimpleFixedNodeBranch::checkParameters 
  Average Energy of a population  = -6.26814
  Energy Variance = 0.0425742

  Fluctuating population
  Persistent walkers are killed after 1 MC sweeps
  BranchInterval = 1
  Steps per block = 1000
  Number of blocks = 1000

  DMC Engine Initialization = 0.00739778392 secs

 Warmup is completed after 500

  TauEff     = 0.0009999370647
 TauEff/Tau = 0.9999370647
  Etrial     = -6.280020352
 Running average of energy = -6.274562285
                  Variance = 0.03328391295
branch cutoff = 10 15
