  Input file(s): qmc.qmc.in-wfj.xml 

=====================================================
                    QMCPACK 3.9.9

       (c) Copyright 2003-  QMCPACK developers

                    Please cite:
 J. Kim et al. J. Phys. Cond. Mat. 30 195901 (2018)
      https://doi.org/10.1088/1361-648X/aab9c3

  Git branch: develop
  Last git commit: 51afccc38c709a720e0a3b2699c25cdc16ac35ad
  Last git commit date: Thu Jun 11 17:49:55 2020 -0400
  Last git commit subject: Merge pull request #2531 from mmorale3/add_afqmc_hip
=====================================================
  Global options 

  Total number of MPI ranks = 8
  Number of MPI groups      = 1
  MPI group ID              = 0
  Number of ranks in group  = 8
  MPI ranks per node        = 2
  OMP 1st level threads     = 21
  OMP nested threading disabled or only 1 thread on the 2nd level

  Precision used in this calculation, see definitions in the manual:
  Base precision      = double
  Full precision      = double

  Structure-of-arrays (SoA) optimization enabled

  Input XML = qmc.qmc.in-wfj.xml

  Project = qmc
  date    = 2020-07-12 20:26:21 EDT
  host    = a02n18

 Random Number
 -------------
  Offset for the random number seeds based on time: 557

  Range of prime numbers to use as seeds over processors and threads = 4051-5503


 Particle Set 
 ------------
  Name: ion0
  All the species have the same mass 1
  Particle set size: 5

 Particle Set 
 ------------
  Name: e
  All the species have the same mass 1
  Particle set size: 8

 Wavefunction setup: 
 ------------------- 
  Name: psi0
  LCAO: SoaAtomicBasisSet<MultiQuintic,1>
Reading BasisSet from HDF5 file:qmc.h5
<input node="atomicBasisSet" name="gaussian" expandYlm="pyscf" angular="spherical" elementType="Si" normalized="no" type="Numerical" expM="0" />
  AO BasisSet for Si
   Spherical Harmonics contain (-1)^m factor
   Angular momentum m expanded as -l, ... ,l, with the exception of L=1 (1,-1,0)
   Grid is created by the input paremters in h5
    Using log grid ri = 1e-06 rf = 100 npts = 1001
   R(n,l,m,s) 0 0 0 0
   R(n,l,m,s) 1 0 0 0
   R(n,l,m,s) 2 0 0 0
   R(n,l,m,s) 3 0 0 0
   R(n,l,m,s) 4 0 0 0
   R(n,l,m,s) 5 1 0 0
   R(n,l,m,s) 6 1 0 0
   R(n,l,m,s) 7 1 0 0
   R(n,l,m,s) 8 1 0 0
   R(n,l,m,s) 9 1 0 0
   R(n,l,m,s) 10 2 0 0
   R(n,l,m,s) 11 2 0 0
   R(n,l,m,s) 12 2 0 0
   R(n,l,m,s) 13 2 0 0
   R(n,l,m,s) 14 3 0 0
   R(n,l,m,s) 15 3 0 0
   R(n,l,m,s) 16 3 0 0
   R(n,l,m,s) 17 4 0 0
   R(n,l,m,s) 18 4 0 0
Expanding Ylm as L=1 as (1,-1,0) and L>1 as -l,-l+1,...,l-1,l
   Adding 1 spherical orbitals
   Adding 1 spherical orbitals
   Adding 1 spherical orbitals
   Adding 1 spherical orbitals
   Adding 1 spherical orbitals
   Adding 3 spherical orbitals
   Adding 3 spherical orbitals
   Adding 3 spherical orbitals
   Adding 3 spherical orbitals
   Adding 3 spherical orbitals
   Adding 5 spherical orbitals
   Adding 5 spherical orbitals
   Adding 5 spherical orbitals
   Adding 5 spherical orbitals
   Adding 7 spherical orbitals
   Adding 7 spherical orbitals
   Adding 7 spherical orbitals
   Adding 9 spherical orbitals
   Adding 9 spherical orbitals
  Setting cutoff radius 8.64717e+15

   Maximum Angular Momentum  = 4
   Number of Radial functors = 19
   Basis size                = 79

<input node="atomicBasisSet" name="gaussian" expandYlm="pyscf" angular="spherical" elementType="H" normalized="no" type="Numerical" expM="0" />
  AO BasisSet for H
   Spherical Harmonics contain (-1)^m factor
   Angular momentum m expanded as -l, ... ,l, with the exception of L=1 (1,-1,0)
   Grid is created by the input paremters in h5
    Using log grid ri = 1e-06 rf = 100 npts = 1001
   R(n,l,m,s) 0 0 0 0
   R(n,l,m,s) 1 0 0 0
   R(n,l,m,s) 2 0 0 0
   R(n,l,m,s) 3 0 0 0
   R(n,l,m,s) 4 0 0 0
   R(n,l,m,s) 5 1 0 0
   R(n,l,m,s) 6 1 0 0
   R(n,l,m,s) 7 1 0 0
   R(n,l,m,s) 8 1 0 0
   R(n,l,m,s) 9 2 0 0
   R(n,l,m,s) 10 2 0 0
   R(n,l,m,s) 11 2 0 0
   R(n,l,m,s) 12 3 0 0
   R(n,l,m,s) 13 3 0 0
Expanding Ylm as L=1 as (1,-1,0) and L>1 as -l,-l+1,...,l-1,l
   Adding 1 spherical orbitals
   Adding 1 spherical orbitals
   Adding 1 spherical orbitals
   Adding 1 spherical orbitals
   Adding 1 spherical orbitals
   Adding 3 spherical orbitals
   Adding 3 spherical orbitals
   Adding 3 spherical orbitals
   Adding 3 spherical orbitals
   Adding 5 spherical orbitals
   Adding 5 spherical orbitals
   Adding 5 spherical orbitals
   Adding 7 spherical orbitals
   Adding 7 spherical orbitals
  Setting cutoff radius 9.95675e+11

   Maximum Angular Momentum  = 3
   Number of Radial functors = 14
   Basis size                = 46

  Created SPOSet builder named 'LCAOBSet' of type molecularorbital
Reuse SPOSetBuilder "LCAOBSet" type MolecularOrbital
  Building SPOSet '' with '' basis set.
Reuse SPOSetBuilder "LCAOBSet" type MolecularOrbital
  Building SPOSet '' with '' basis set.
  Creating a determinant updet group=0 sposet=updet
  Reusing a SPO set updet
  Setting delay_rank by default!
  Using rank-1 Sherman-Morrison Fahy update
  Using DiracDeterminant with DelayedUpdate engine

  Creating a determinant downdet group=1 sposet=downdet
  Reusing a SPO set downdet
  Setting delay_rank by default!
  Using rank-1 Sherman-Morrison Fahy update
  Using DiracDeterminant with DelayedUpdate engine

  Added a fermionic WaveFunctionComponent SlaterDet

   Jastrow
   -------
    Name: J2   Type: Two-Body   Function: Bspline

    Radial function for species: u - u
     Number of parameters: 10
     Cusp: -0.25
     Cutoff radius: 10

     Name                        Value Type Recompute Use Index
     ---- ---------------------------- ---- --------- --- -----
     uu_0                 5.693818e-01    1         1  ON     0
     uu_1                 3.865677e-01    1         1  ON     1
     uu_2                 2.319077e-01    1         1  ON     2
     uu_3                 1.261014e-01    1         1  ON     3
     uu_4                 5.534293e-02    1         1  ON     4
     uu_5                 8.308228e-03    1         1  ON     5
     uu_6                -2.421389e-02    1         1  ON     6
     uu_7                -4.736955e-02    1         1  ON     7
     uu_8                -5.687010e-02    1         1  ON     8
     uu_9                -5.913971e-02    1         1  ON     9

    Radial function for species: u - d
     Number of parameters: 10
     Cusp: -0.5
     Cutoff radius: 10

     Name                        Value Type Recompute Use Index
     ---- ---------------------------- ---- --------- --- -----
     ud_0                 9.652260e-01    1         1  ON     0
     ud_1                 6.206794e-01    1         1  ON     1
     ud_2                 3.814880e-01    1         1  ON     2
     ud_3                 2.298636e-01    1         1  ON     3
     ud_4                 1.372682e-01    1         1  ON     4
     ud_5                 7.033716e-02    1         1  ON     5
     ud_6                 1.868983e-02    1         1  ON     6
     ud_7                -2.179367e-02    1         1  ON     7
     ud_8                -4.729789e-02    1         1  ON     8
     ud_9                -6.419495e-02    1         1  ON     9


   Jastrow
   -------
    Name: J1   Type: One-Body   Function: Bspline

    Radial function for element: Si
     Number of parameters: 10
     Cusp: 0
     Cutoff radius: 10

      Name                        Value Type Recompute Use Index
     ----- ---------------------------- ---- --------- --- -----
     eSi_0                -4.334167e-01    1         1  ON     0
     eSi_1                -1.555800e-01    1         1  ON     1
     eSi_2                -6.243878e-02    1         1  ON     2
     eSi_3                 3.176867e-02    1         1  ON     3
     eSi_4                 6.297605e-02    1         1  ON     4
     eSi_5                 4.262600e-02    1         1  ON     5
     eSi_6                 2.245589e-02    1         1  ON     6
     eSi_7                 7.642099e-02    1         1  ON     7
     eSi_8                 2.182067e-01    1         1  ON     8
     eSi_9                 1.441096e-01    1         1  ON     9

    Radial function for element: H
     Number of parameters: 10
     Cusp: 0
     Cutoff radius: 10

     Name                        Value Type Recompute Use Index
     ---- ---------------------------- ---- --------- --- -----
     eH_0                -4.992618e-01    1         1  ON     0
     eH_1                -4.651517e-01    1         1  ON     1
     eH_2                -3.626030e-01    1         1  ON     2
     eH_3                -2.522970e-01    1         1  ON     3
     eH_4                -1.415920e-01    1         1  ON     4
     eH_5                -2.597490e-02    1         1  ON     5
     eH_6                 8.736316e-02    1         1  ON     6
     eH_7                 1.651366e-01    1         1  ON     7
     eH_8                 2.080458e-01    1         1  ON     8
     eH_9                 1.834835e-01    1         1  ON     9


   Jastrow
   -------
    Name: J3   Type: eeI   Function: polynomial

     Ion: Si   electron-electron: u - u
      Number of parameters for e-e: 3, for e-I: 3
      Cutoff radius: 10

Expected 26 parameters, but found 0 in PolynomialFunctor3D.
         Name                        Value Type Recompute Use Index
      ------- ---------------------------- ---- --------- --- -----
       uuSi_0                 0.000000e+00    1         1  ON     0
       uuSi_1                 0.000000e+00    1         1  ON     1
       uuSi_2                 0.000000e+00    1         1  ON     2
       uuSi_3                 0.000000e+00    1         1  ON     3
       uuSi_4                 0.000000e+00    1         1  ON     4
       uuSi_5                 0.000000e+00    1         1  ON     5
       uuSi_6                 0.000000e+00    1         1  ON     6
       uuSi_7                 0.000000e+00    1         1  ON     7
       uuSi_8                 0.000000e+00    1         1  ON     8
       uuSi_9                 0.000000e+00    1         1  ON     9
      uuSi_10                 0.000000e+00    1         1  ON    10
      uuSi_11                 0.000000e+00    1         1  ON    11
      uuSi_12                 0.000000e+00    1         1  ON    12
      uuSi_13                 0.000000e+00    1         1  ON    13
      uuSi_14                 0.000000e+00    1         1  ON    14
      uuSi_15                 0.000000e+00    1         1  ON    15
      uuSi_16                 0.000000e+00    1         1  ON    16
      uuSi_17                 0.000000e+00    1         1  ON    17
      uuSi_18                 0.000000e+00    1         1  ON    18
      uuSi_19                 0.000000e+00    1         1  ON    19
      uuSi_20                 0.000000e+00    1         1  ON    20
      uuSi_21                 0.000000e+00    1         1  ON    21
      uuSi_22                 0.000000e+00    1         1  ON    22
      uuSi_23                 0.000000e+00    1         1  ON    23
      uuSi_24                 0.000000e+00    1         1  ON    24
      uuSi_25                 0.000000e+00    1         1  ON    25

     Ion: Si   electron-electron: u - d
      Number of parameters for e-e: 3, for e-I: 3
      Cutoff radius: 10

Expected 26 parameters, but found 0 in PolynomialFunctor3D.
         Name                        Value Type Recompute Use Index
      ------- ---------------------------- ---- --------- --- -----
       udSi_0                 0.000000e+00    1         1  ON     0
       udSi_1                 0.000000e+00    1         1  ON     1
       udSi_2                 0.000000e+00    1         1  ON     2
       udSi_3                 0.000000e+00    1         1  ON     3
       udSi_4                 0.000000e+00    1         1  ON     4
       udSi_5                 0.000000e+00    1         1  ON     5
       udSi_6                 0.000000e+00    1         1  ON     6
       udSi_7                 0.000000e+00    1         1  ON     7
       udSi_8                 0.000000e+00    1         1  ON     8
       udSi_9                 0.000000e+00    1         1  ON     9
      udSi_10                 0.000000e+00    1         1  ON    10
      udSi_11                 0.000000e+00    1         1  ON    11
      udSi_12                 0.000000e+00    1         1  ON    12
      udSi_13                 0.000000e+00    1         1  ON    13
      udSi_14                 0.000000e+00    1         1  ON    14
      udSi_15                 0.000000e+00    1         1  ON    15
      udSi_16                 0.000000e+00    1         1  ON    16
      udSi_17                 0.000000e+00    1         1  ON    17
      udSi_18                 0.000000e+00    1         1  ON    18
      udSi_19                 0.000000e+00    1         1  ON    19
      udSi_20                 0.000000e+00    1         1  ON    20
      udSi_21                 0.000000e+00    1         1  ON    21
      udSi_22                 0.000000e+00    1         1  ON    22
      udSi_23                 0.000000e+00    1         1  ON    23
      udSi_24                 0.000000e+00    1         1  ON    24
      udSi_25                 0.000000e+00    1         1  ON    25

     Ion: H   electron-electron: u - u
      Number of parameters for e-e: 3, for e-I: 3
      Cutoff radius: 10

Expected 26 parameters, but found 0 in PolynomialFunctor3D.
        Name                        Value Type Recompute Use Index
      ------ ---------------------------- ---- --------- --- -----
       uuH_0                 0.000000e+00    1         1  ON     0
       uuH_1                 0.000000e+00    1         1  ON     1
       uuH_2                 0.000000e+00    1         1  ON     2
       uuH_3                 0.000000e+00    1         1  ON     3
       uuH_4                 0.000000e+00    1         1  ON     4
       uuH_5                 0.000000e+00    1         1  ON     5
       uuH_6                 0.000000e+00    1         1  ON     6
       uuH_7                 0.000000e+00    1         1  ON     7
       uuH_8                 0.000000e+00    1         1  ON     8
       uuH_9                 0.000000e+00    1         1  ON     9
      uuH_10                 0.000000e+00    1         1  ON    10
      uuH_11                 0.000000e+00    1         1  ON    11
      uuH_12                 0.000000e+00    1         1  ON    12
      uuH_13                 0.000000e+00    1         1  ON    13
      uuH_14                 0.000000e+00    1         1  ON    14
      uuH_15                 0.000000e+00    1         1  ON    15
      uuH_16                 0.000000e+00    1         1  ON    16
      uuH_17                 0.000000e+00    1         1  ON    17
      uuH_18                 0.000000e+00    1         1  ON    18
      uuH_19                 0.000000e+00    1         1  ON    19
      uuH_20                 0.000000e+00    1         1  ON    20
      uuH_21                 0.000000e+00    1         1  ON    21
      uuH_22                 0.000000e+00    1         1  ON    22
      uuH_23                 0.000000e+00    1         1  ON    23
      uuH_24                 0.000000e+00    1         1  ON    24
      uuH_25                 0.000000e+00    1         1  ON    25

     Ion: H   electron-electron: u - d
      Number of parameters for e-e: 3, for e-I: 3
      Cutoff radius: 10

Expected 26 parameters, but found 0 in PolynomialFunctor3D.
        Name                        Value Type Recompute Use Index
      ------ ---------------------------- ---- --------- --- -----
       udH_0                 0.000000e+00    1         1  ON     0
       udH_1                 0.000000e+00    1         1  ON     1
       udH_2                 0.000000e+00    1         1  ON     2
       udH_3                 0.000000e+00    1         1  ON     3
       udH_4                 0.000000e+00    1         1  ON     4
       udH_5                 0.000000e+00    1         1  ON     5
       udH_6                 0.000000e+00    1         1  ON     6
       udH_7                 0.000000e+00    1         1  ON     7
       udH_8                 0.000000e+00    1         1  ON     8
       udH_9                 0.000000e+00    1         1  ON     9
      udH_10                 0.000000e+00    1         1  ON    10
      udH_11                 0.000000e+00    1         1  ON    11
      udH_12                 0.000000e+00    1         1  ON    12
      udH_13                 0.000000e+00    1         1  ON    13
      udH_14                 0.000000e+00    1         1  ON    14
      udH_15                 0.000000e+00    1         1  ON    15
      udH_16                 0.000000e+00    1         1  ON    16
      udH_17                 0.000000e+00    1         1  ON    17
      udH_18                 0.000000e+00    1         1  ON    18
      udH_19                 0.000000e+00    1         1  ON    19
      udH_20                 0.000000e+00    1         1  ON    20
      udH_21                 0.000000e+00    1         1  ON    21
      udH_22                 0.000000e+00    1         1  ON    22
      udH_23                 0.000000e+00    1         1  ON    23
      udH_24                 0.000000e+00    1         1  ON    24
      udH_25                 0.000000e+00    1         1  ON    25

  QMCHamiltonian::addOperator Kinetic to H, physical Hamiltonian 
  QMCHamiltonian::addOperator ElecElec to H, physical Hamiltonian 
QMCHamiltonian::addOperatorType added type coulomb named ElecElec
  QMCHamiltonian::addOperator IonIon to H, physical Hamiltonian 
QMCHamiltonian::addOperatorType added type coulomb named IonIon

  ECPotential builder for pseudopotential 

  Adding pseudopotential for H
   Linear grid  ri=0 rf=10 npts = 10001
    ECPComponentBuilder::buildSemiLocalAndLocal 
    Assuming Hartree unit
   Number of angular momentum channels 2
   Maximum angular momentum channel 1
   Creating a Linear Grid Rmax=1e-10
  Using global grid with delta = 0.001
   Making L=1 a local potential with a radial cutoff of 9.999
    Non-local pseudopotential parameters
    Maximum angular mementum = 0
    Number of non-local channels = 1
       l(0)=0
    Cutoff radius = 0.001
    Spherical grids and weights: 
                        1                 0                 0       0.08333333333
                       -1   1.224646799e-16                 0       0.08333333333
             0.4472135955       0.894427191                 0       0.08333333333
            -0.4472135955      0.7236067977      0.5257311121       0.08333333333
             0.4472135955      0.2763932023      0.8506508084       0.08333333333
            -0.4472135955     -0.2763932023      0.8506508084       0.08333333333
             0.4472135955     -0.7236067977      0.5257311121       0.08333333333
            -0.4472135955      -0.894427191   1.095357397e-16       0.08333333333
             0.4472135955     -0.7236067977     -0.5257311121       0.08333333333
            -0.4472135955     -0.2763932023     -0.8506508084       0.08333333333
             0.4472135955      0.2763932023     -0.8506508084       0.08333333333
            -0.4472135955      0.7236067977     -0.5257311121       0.08333333333
    Maximum cutoff radius 0.001

  Adding pseudopotential for Si
   Linear grid  ri=0 rf=10 npts = 10001
    ECPComponentBuilder::buildSemiLocalAndLocal 
    Assuming Hartree unit
   Number of angular momentum channels 3
   Maximum angular momentum channel 2
   Creating a Linear Grid Rmax=2.69
  Using global grid with delta = 0.001
   Making L=2 a local potential with a radial cutoff of 9.999
    Non-local pseudopotential parameters
    Maximum angular mementum = 1
    Number of non-local channels = 2
       l(0)=0
       l(1)=1
    Cutoff radius = 2.69
    Spherical grids and weights: 
                        1                 0                 0       0.08333333333
                       -1   1.224646799e-16                 0       0.08333333333
             0.4472135955       0.894427191                 0       0.08333333333
            -0.4472135955      0.7236067977      0.5257311121       0.08333333333
             0.4472135955      0.2763932023      0.8506508084       0.08333333333
            -0.4472135955     -0.2763932023      0.8506508084       0.08333333333
             0.4472135955     -0.7236067977      0.5257311121       0.08333333333
            -0.4472135955      -0.894427191   1.095357397e-16       0.08333333333
             0.4472135955     -0.7236067977     -0.5257311121       0.08333333333
            -0.4472135955     -0.2763932023     -0.8506508084       0.08333333333
             0.4472135955      0.2763932023     -0.8506508084       0.08333333333
            -0.4472135955      0.7236067977     -0.5257311121       0.08333333333
    Maximum cutoff radius 2.69
  QMCHamiltonian::addOperator LocalECP to H, physical Hamiltonian 

  Using NonLocalECP potential 
    Maximum grid on a sphere for NonLocalECPotential: 12
  QMCHamiltonian::addOperator NonLocalECP to H, physical Hamiltonian 
QMCHamiltonian::addOperatorType added type pseudo named PseudoPot

  QMCHamiltonian::add2WalkerProperty added
    5 to P::PropertyList 
    0 to P::Collectables 
    starting Index of the observables in P::PropertyList = 9
ParticleSetPool::randomize 1 ParticleSet.
<init source="ion0" target="e">
</init>
  Initialization Execution time = 0.456 secs
=========================================================
 Summary of QMC systems 
=========================================================
ParticleSetPool has: 

  ParticleSet 'e' contains 8 particles :  u(4) d(4)

    u -3.6028892313e-01  1.0105991073e+00  3.1651438207e-01
    u -1.2400569388e-01  1.0845873700e+00  2.4411645319e-01
    u  1.6404359692e+00  2.2532273449e+00  2.5326036316e+00
    u -1.4330855954e+00  6.9681453368e-01 -2.2278209012e+00
    d  8.2927161157e-01  2.2434035903e-01  7.1643563246e-01
    d -1.5390762076e-01 -7.9069074356e-03  1.1079485290e+00
    d -2.1888756724e+00 -1.5235236139e+00  6.5896954440e-01
    d  2.5915169729e+00 -1.2125663703e+00 -1.9823883506e+00

  Distance table for dissimilar particles (A-B):
    source: ion0  target: e
    Using structure-of-arrays (SoA) data layout
    Distance computations use open boundary conditions in 3D.

  Distance table for similar particles (A-A):
    source/target: e
    Using structure-of-arrays (SoA) data layout
    Distance computations use open boundary conditions in 3D.


  ParticleSet 'ion0' contains 5 particles :  Si(1) H(4)

    Si  0.0000000000e+00  0.0000000000e+00  0.0000000000e+00
    H  1.6145820008e+00  1.6145820008e+00  1.6145820008e+00
    H -1.6145820008e+00 -1.6145820008e+00  1.6145820008e+00
    H -1.6145820008e+00  1.6145820008e+00 -1.6145820008e+00
    H  1.6145820008e+00 -1.6145820008e+00 -1.6145820008e+00

  Distance table for similar particles (A-A):
    source/target: ion0
    Using structure-of-arrays (SoA) data layout
    Distance computations use open boundary conditions in 3D.


  Hamiltonian h0
  Kinetic         Kinetic energy
  ElecElec        CoulombAB source=e

  IonIon          CoulombAA source/target ion0

  LocalECP        LocalECPotential: ion0
  NonLocalECP     NonLocalECPotential: ion0

Loop execution max-interations = 5

=========================================================
  Start QMCFixedSampleLinearOptimize
  File Root qmc.s000 append = no 
=========================================================
  Skip QMCDriver::putQMCInfo 
  Resetting Properties of the walkers 1 x 14
  Adding 21 walkers to 0 existing sets
  Total number of walkers: 1.6800000000e+02
  Total weight: 1.6800000000e+02

=========================================================
  Start VMC
  File Root qmc.s000 append = no 
=========================================================
Resetting walkers
  Using the current 21 walkers.
  Total number of walkers: 1.6800000000e+02
  Total weight: 1.6800000000e+02
  Resetting Properties of the walkers 1 x 14

<vmc function="put">
  qmc_counter=0  my_counter=0
  time step      = 5.0000000000e-01
  blocks         = 20
  steps          = 298
  substeps       = 4
  current        = 0
  target samples = 1.0000000000e+06
  walkers/mpi    = 21

  stepsbetweensamples = 1
  SpinMoves      = no
<parameter name="blocks" condition="int">20</parameter>
<parameter name="blocks_between_recompute" condition="int">0</parameter>
<parameter name="check_properties" condition="int">100</parameter>
<parameter name="checkproperties" condition="int">100</parameter>
<parameter name="current" condition="int">0</parameter>
<parameter name="dmcwalkersperthread" condition="real">5.9530000000e+03</parameter>
<parameter name="maxcpusecs" condition="real">3.6000000000e+05</parameter>
<parameter name="record_configs" condition="int">0</parameter>
<parameter name="record_walkers" condition="int">1</parameter>
<parameter name="recordconfigs" condition="int">0</parameter>
<parameter name="recordwalkers" condition="int">1</parameter>
<parameter name="rewind" condition="int">0</parameter>
<parameter name="samples" condition="real">1.0000000000e+06</parameter>
<parameter name="samplesperthread" condition="real">5.9530000000e+03</parameter>
<parameter name="spinmass" condition="double">1.0000000000e+00</parameter>
<parameter name="spinmoves" condition="string">no</parameter>
<parameter name="steps" condition="int">298</parameter>
<parameter name="stepsbetweensamples" condition="int">1</parameter>
<parameter name="store_configs" condition="int">0</parameter>
<parameter name="storeconfigs" condition="int">0</parameter>
<parameter name="sub_steps" condition="int">4</parameter>
<parameter name="substeps" condition="int">4</parameter>
<parameter name="tau" condition="au">5.0000000000e-01</parameter>
<parameter name="time_step" condition="au">5.0000000000e-01</parameter>
<parameter name="timestep" condition="au">5.0000000000e-01</parameter>
<parameter name="use_drift" condition="string">no</parameter>
<parameter name="usedrift" condition="string">no</parameter>
<parameter name="walkers" condition="int">21</parameter>
<parameter name="warmup_steps" condition="int">100</parameter>
<parameter name="warmupsteps" condition="int">100</parameter>
  DumpConfig==false Nothing (configurations, state) will be saved.
  Walker Samples are dumped every 1 steps.
</vmc>
  Set drift_modifier UNR parameter a = 1.0000000000e+00
 Using QMCCostFunction::QMCCostFunction
  Set drift_modifier UNR parameter a = 1.0000000000e+00
<optimization-report>
<vmc stage="main" blocks="20">
  CloneManager::makeClones makes 21 clones for W/Psi/H.
  Cloning methods for both Psi and H are used
===== Memory Usage before cloning =====
Available memory on node 0, free + buffers : 562982 MB
Memory footprint by rank 0 on node 0       : 178 MB
==================================================
===== Memory Usage after cloning =====
Available memory on node 0, free + buffers : 562948 MB
Memory footprint by rank 0 on node 0       : 178 MB
==================================================
  Initial partition of walkers 0 1 2 3 4 5 6 7 8 9 10 11 12 13 14 15 16 17 18 19 20 21 

  Using Particle by Particle moves
  Walker moves without drift
  Total Sample Size   =1000104
  Walker distribution on root = 0 1 2 3 4 5 6 7 8 9 10 11 12 13 14 15 16 17 18 19 20 21 
  Using Locality Approximation
===== Memory Usage after the buffer registration =====
Available memory on node 0, free + buffers : 562942 MB
Memory footprint by rank 0 on node 0       : 178 MB
==================================================
  Anonymous Buffer size per walker : 19168 Bytes.
MEMORY increase 0 MB VMC::resetRun
====================================================
  SimpleFixedNodeBranch::finalize after a VMC block
    QMC counter        = 0
    time step          = 0.5
    reference energy   = -6.26338
    reference variance = 0.0441924
====================================================
  Execution time = 6.5733e+00
</vmc>
<opt stage="setup">
  <log>
   Reading configurations from h5FileRoot qmc.s000
  QMCCostFunction is created with 21 threads.
  Using Nonlocal PP in Opt: no
   Number of samples loaded to each thread : 5953 5953 5953 5953 5953 5953 5953 5953 5953 5953 5953 5953 5953 5953 5953 5953 5953 5953 5953 5953 5953 
  VMC Eavg = -6.2770e+00
  VMC Evar = 2.3967e-01
  Total weights = 1.0001e+06
  Execution time = 6.3871e+00
  </log>
</opt>
<opt stage="main" walkers="1000104">
  <log>

*****************************************
Building overlap and Hamiltonian matrices
*****************************************

Among totally 144 optimized parameters, largest LM parameter change : 3.6022e-02 at parameter 31

******************************************************************************
Init Cost =  -5.9512e+00    New Cost =  -5.9580e+00  Delta Cost =  -6.7520e-03
******************************************************************************

The new set of parameters is valid. Updating the trial wave function!

*****************************************************************************
Applying the update for shift_i =   1.0000e-02     and shift_s =   2.5000e-01
*****************************************************************************
  Execution time = 1.5657e+01
  </log>
  <optVariables href="qmc.s000.opt.xml">
   uu_0                 5.648495e-01 1 1  ON 0
   uu_1                 3.719417e-01 1 1  ON 1
   uu_2                 2.315772e-01 1 1  ON 2
   uu_3                 1.320186e-01 1 1  ON 3
   uu_4                 6.757274e-02 1 1  ON 4
   uu_5                 2.130133e-02 1 1  ON 5
   uu_6                -1.394141e-02 1 1  ON 6
   uu_7                -3.804165e-02 1 1  ON 7
   uu_8                -4.948675e-02 1 1  ON 8
   uu_9                -5.319215e-02 1 1  ON 9
   ud_0                 9.554103e-01 1 1  ON 10
   ud_1                 6.141480e-01 1 1  ON 11
   ud_2                 3.897377e-01 1 1  ON 12
   ud_3                 2.386955e-01 1 1  ON 13
   ud_4                 1.458456e-01 1 1  ON 14
   ud_5                 8.363893e-02 1 1  ON 15
   ud_6                 3.379541e-02 1 1  ON 16
   ud_7                -7.034972e-03 1 1  ON 17
   ud_8                -3.496238e-02 1 1  ON 18
   ud_9                -5.003754e-02 1 1  ON 19
  eSi_0                -4.416286e-01 1 1  ON 20
  eSi_1                -1.564981e-01 1 1  ON 21
  eSi_2                -7.664483e-02 1 1  ON 22
  eSi_3                 1.983860e-02 1 1  ON 23
  eSi_4                 6.922055e-02 1 1  ON 24
  eSi_5                 3.766876e-02 1 1  ON 25
  eSi_6                 1.957339e-02 1 1  ON 26
  eSi_7                 7.197325e-02 1 1  ON 27
  eSi_8                 2.233792e-01 1 1  ON 28
  eSi_9                 1.638491e-01 1 1  ON 29
   eH_0                -5.271738e-01 1 1  ON 30
   eH_1                -5.011741e-01 1 1  ON 31
   eH_2                -3.735865e-01 1 1  ON 32
   eH_3                -2.575858e-01 1 1  ON 33
   eH_4                -1.434785e-01 1 1  ON 34
   eH_5                -3.664201e-02 1 1  ON 35
   eH_6                 6.892502e-02 1 1  ON 36
   eH_7                 1.620167e-01 1 1  ON 37
   eH_8                 2.008358e-01 1 1  ON 38
   eH_9                 1.768212e-01 1 1  ON 39
 uuSi_0                -4.400631e-05 1 1  ON 40
 uuSi_1                -9.057415e-05 1 1  ON 41
 uuSi_2                 1.512340e-05 1 1  ON 42
 uuSi_3                 6.974579e-05 1 1  ON 43
 uuSi_4                 7.158237e-06 1 1  ON 44
 uuSi_5                 7.498504e-06 1 1  ON 45
 uuSi_6                -9.371725e-05 1 1  ON 46
 uuSi_7                 8.041739e-05 1 1  ON 47
 uuSi_8                -8.496173e-06 1 1  ON 48
 uuSi_9                 9.005640e-05 1 1  ON 49
uuSi_10                 4.689869e-05 1 1  ON 50
uuSi_11                -4.035569e-05 1 1  ON 51
uuSi_12                 4.839490e-06 1 1  ON 52
uuSi_13                -7.998170e-05 1 1  ON 53
uuSi_14                -1.943112e-06 1 1  ON 54
uuSi_15                -1.529884e-07 1 1  ON 55
uuSi_16                -8.788846e-05 1 1  ON 56
uuSi_17                -6.075461e-05 1 1  ON 57
uuSi_18                 3.292767e-05 1 1  ON 58
uuSi_19                -3.244338e-06 1 1  ON 59
uuSi_20                 4.036779e-05 1 1  ON 60
uuSi_21                -4.223356e-06 1 1  ON 61
uuSi_22                 4.804434e-07 1 1  ON 62
uuSi_23                -8.945394e-06 1 1  ON 63
uuSi_24                 9.812997e-07 1 1  ON 64
uuSi_25                -1.154292e-07 1 1  ON 65
 udSi_0                -2.821648e-05 1 1  ON 66
 udSi_1                 3.414747e-05 1 1  ON 67
 udSi_2                 3.306034e-05 1 1  ON 68
 udSi_3                 5.136266e-05 1 1  ON 69
 udSi_4                 3.710681e-06 1 1  ON 70
 udSi_5                -5.992829e-06 1 1  ON 71
 udSi_6                 1.244470e-04 1 1  ON 72
 udSi_7                 1.827709e-06 1 1  ON 73
 udSi_8                -1.599380e-05 1 1  ON 74
 udSi_9                -8.040704e-05 1 1  ON 75
udSi_10                 2.497933e-05 1 1  ON 76
udSi_11                -1.267240e-05 1 1  ON 77
udSi_12                 7.924991e-06 1 1  ON 78
udSi_13                -5.214128e-05 1 1  ON 79
udSi_14                -9.711488e-06 1 1  ON 80
udSi_15                 1.078918e-07 1 1  ON 81
udSi_16                 1.374109e-04 1 1  ON 82
udSi_17                -7.529485e-05 1 1  ON 83
udSi_18                 1.558549e-05 1 1  ON 84
udSi_19                -3.943104e-06 1 1  ON 85
udSi_20                -7.428837e-06 1 1  ON 86
udSi_21                 1.616070e-06 1 1  ON 87
udSi_22                 1.070451e-07 1 1  ON 88
udSi_23                 2.311966e-06 1 1  ON 89
udSi_24                -5.215124e-07 1 1  ON 90
udSi_25                 2.833809e-08 1 1  ON 91
  uuH_0                -1.900764e-05 1 1  ON 92
  uuH_1                -3.207515e-06 1 1  ON 93
  uuH_2                 1.405384e-05 1 1  ON 94
  uuH_3                 4.899201e-06 1 1  ON 95
  uuH_4                -1.740033e-06 1 1  ON 96
  uuH_5                 6.231626e-07 1 1  ON 97
  uuH_6                 1.485710e-05 1 1  ON 98
  uuH_7                 7.251540e-06 1 1  ON 99
  uuH_8                 3.261226e-06 1 1  ON 100
  uuH_9                 8.436163e-06 1 1  ON 101
 uuH_10                 1.337125e-06 1 1  ON 102
 uuH_11                -1.870178e-06 1 1  ON 103
 uuH_12                -6.541584e-07 1 1  ON 104
 uuH_13                -1.164158e-05 1 1  ON 105
 uuH_14                -3.684232e-07 1 1  ON 106
 uuH_15                 7.371810e-08 1 1  ON 107
 uuH_16                -1.298736e-05 1 1  ON 108
 uuH_17                -6.427232e-06 1 1  ON 109
 uuH_18                -1.066712e-06 1 1  ON 110
 uuH_19                 5.002072e-07 1 1  ON 111
 uuH_20                 8.642081e-06 1 1  ON 112
 uuH_21                 1.457608e-07 1 1  ON 113
 uuH_22                -6.357126e-08 1 1  ON 114
 uuH_23                -2.455404e-06 1 1  ON 115
 uuH_24                 5.804891e-08 1 1  ON 116
 uuH_25                 6.040262e-10 1 1  ON 117
  udH_0                 2.042264e-06 1 1  ON 118
  udH_1                -8.850933e-06 1 1  ON 119
  udH_2                -7.330205e-06 1 1  ON 120
  udH_3                -4.409291e-06 1 1  ON 121
  udH_4                 2.891699e-07 1 1  ON 122
  udH_5                 3.795038e-06 1 1  ON 123
  udH_6                -1.512991e-05 1 1  ON 124
  udH_7                -1.411711e-06 1 1  ON 125
  udH_8                -5.450382e-06 1 1  ON 126
  udH_9                 1.191106e-05 1 1  ON 127
 udH_10                -2.928805e-06 1 1  ON 128
 udH_11                 4.877706e-06 1 1  ON 129
 udH_12                 6.240967e-07 1 1  ON 130
 udH_13                -3.398788e-06 1 1  ON 131
 udH_14                -7.755422e-07 1 1  ON 132
 udH_15                 4.477295e-09 1 1  ON 133
 udH_16                 4.535597e-06 1 1  ON 134
 udH_17                -3.056168e-06 1 1  ON 135
 udH_18                -1.694588e-06 1 1  ON 136
 udH_19                -1.101128e-08 1 1  ON 137
 udH_20                -1.633072e-06 1 1  ON 138
 udH_21                 5.261695e-07 1 1  ON 139
 udH_22                -3.528728e-08 1 1  ON 140
 udH_23                 1.402956e-06 1 1  ON 141
 udH_24                -2.598490e-07 1 1  ON 142
 udH_25                 2.634263e-08 1 1  ON 143
  </optVariables>
   Restore the number of walkers to 21, removing 0 walkers.
</opt>
</optimization-report>
  QMC Execution time = 15.66 secs

=========================================================
  Start QMCFixedSampleLinearOptimize
  File Root qmc.s001 append = no 
=========================================================
  Skip QMCDriver::putQMCInfo 
  Resetting Properties of the walkers 1 x 14

=========================================================
  Start VMC
  File Root qmc.s001 append = no 
=========================================================
Using existing walkers 
  Resetting Properties of the walkers 1 x 14

<vmc function="put">
  qmc_counter=1  my_counter=0
  time step      = 0.5
  blocks         = 20
  steps          = 298
  substeps       = 4
  current        = 0
  target samples = 1e+06
  walkers/mpi    = 21

  stepsbetweensamples = 1
  SpinMoves      = no
<parameter name="blocks" condition="int">20</parameter>
<parameter name="blocks_between_recompute" condition="int">0</parameter>
<parameter name="check_properties" condition="int">100</parameter>
<parameter name="checkproperties" condition="int">100</parameter>
<parameter name="current" condition="int">0</parameter>
<parameter name="dmcwalkersperthread" condition="real">5953</parameter>
<parameter name="maxcpusecs" condition="real">3.6e+05</parameter>
<parameter name="record_configs" condition="int">0</parameter>
<parameter name="record_walkers" condition="int">1</parameter>
<parameter name="recordconfigs" condition="int">0</parameter>
<parameter name="recordwalkers" condition="int">1</parameter>
<parameter name="rewind" condition="int">0</parameter>
<parameter name="samples" condition="real">1e+06</parameter>
<parameter name="samplesperthread" condition="real">5953</parameter>
<parameter name="spinmass" condition="double">1</parameter>
<parameter name="spinmoves" condition="string">no</parameter>
<parameter name="steps" condition="int">298</parameter>
<parameter name="stepsbetweensamples" condition="int">1</parameter>
<parameter name="store_configs" condition="int">0</parameter>
<parameter name="storeconfigs" condition="int">0</parameter>
<parameter name="sub_steps" condition="int">4</parameter>
<parameter name="substeps" condition="int">4</parameter>
<parameter name="tau" condition="au">0.5</parameter>
<parameter name="time_step" condition="au">0.5</parameter>
<parameter name="timestep" condition="au">0.5</parameter>
<parameter name="use_drift" condition="string">no</parameter>
<parameter name="usedrift" condition="string">no</parameter>
<parameter name="walkers" condition="int">1</parameter>
<parameter name="warmup_steps" condition="int">100</parameter>
<parameter name="warmupsteps" condition="int">100</parameter>
  DumpConfig==false Nothing (configurations, state) will be saved.
  Walker Samples are dumped every 1 steps.
</vmc>
    Restarting, cummulative properties:
      energy     = -6.263
      variance   = 0
      r2accepted = 1e-10
      r2proposed = 1e-10
  Set drift_modifier UNR parameter a = 1
 Using QMCCostFunction::QMCCostFunction
  Set drift_modifier UNR parameter a = 1.0000e+00
  EstimatorManagerBase::add replace LocalEnergy estimator.
<optimization-report>
<vmc stage="main" blocks="20">
  Cannot make clones again. Use existing 21 clones
  Initial partition of walkers 0 1 2 3 4 5 6 7 8 9 10 11 12 13 14 15 16 17 18 19 20 21 

  Using Particle by Particle moves
  Walker moves without drift
  Total Sample Size   =1000104
  Walker distribution on root = 0 1 2 3 4 5 6 7 8 9 10 11 12 13 14 15 16 17 18 19 20 21 
  Using Locality Approximation
===== Memory Usage after the buffer registration =====
Available memory on node 0, free + buffers : 562571 MB
Memory footprint by rank 0 on node 0       : 616 MB
==================================================
  Anonymous Buffer size per walker : 19168 Bytes.
MEMORY increase 0 MB VMC::resetRun
====================================================
  SimpleFixedNodeBranch::finalize after a VMC block
    QMC counter        = 1
    time step          = 0.5
    reference energy   = -6.24618
    reference variance = 0.0254553
====================================================
  Execution time = 6.6215e+00
</vmc>
<opt stage="setup">
  <log>
   Reading configurations from h5FileRoot qmc.s001
  QMCCostFunction is created with 21 threads.
  Using Nonlocal PP in Opt: no
   Number of samples loaded to each thread : 5953 5953 5953 5953 5953 5953 5953 5953 5953 5953 5953 5953 5953 5953 5953 5953 5953 5953 5953 5953 5953 
  VMC Eavg = -6.2839e+00
  VMC Evar = 2.4307e-01
  Total weights = 1.0001e+06
  Execution time = 6.4408e+00
  </log>
</opt>
<opt stage="main" walkers="1000104">
  <log>

*****************************************
Building overlap and Hamiltonian matrices
*****************************************

Among totally 144 optimized parameters, largest LM parameter change : 3.1484e-02 at parameter 30

******************************************************************************
Init Cost =  -5.9575e+00    New Cost =  -5.9579e+00  Delta Cost =  -4.2732e-04
******************************************************************************

The new set of parameters is valid. Updating the trial wave function!

*****************************************************************************
Applying the update for shift_i =   1.0000e-02     and shift_s =   6.2500e-02
*****************************************************************************
  Execution time = 1.5702e+01
  </log>
  <optVariables href="qmc.s001.opt.xml">
   uu_0                 5.582923e-01 1 1  ON 0
   uu_1                 3.615735e-01 1 1  ON 1
   uu_2                 2.293248e-01 1 1  ON 2
   uu_3                 1.362604e-01 1 1  ON 3
   uu_4                 7.646543e-02 1 1  ON 4
   uu_5                 3.228845e-02 1 1  ON 5
   uu_6                -3.783443e-03 1 1  ON 6
   uu_7                -2.946491e-02 1 1  ON 7
   uu_8                -4.348757e-02 1 1  ON 8
   uu_9                -4.746785e-02 1 1  ON 9
   ud_0                 9.502373e-01 1 1  ON 10
   ud_1                 6.140124e-01 1 1  ON 11
   ud_2                 3.963055e-01 1 1  ON 12
   ud_3                 2.480673e-01 1 1  ON 13
   ud_4                 1.570840e-01 1 1  ON 14
   ud_5                 9.578979e-02 1 1  ON 15
   ud_6                 4.621205e-02 1 1  ON 16
   ud_7                 5.462748e-03 1 1  ON 17
   ud_8                -2.454918e-02 1 1  ON 18
   ud_9                -4.159583e-02 1 1  ON 19
  eSi_0                -4.473557e-01 1 1  ON 20
  eSi_1                -1.614408e-01 1 1  ON 21
  eSi_2                -8.707556e-02 1 1  ON 22
  eSi_3                 1.010518e-02 1 1  ON 23
  eSi_4                 6.863265e-02 1 1  ON 24
  eSi_5                 3.367084e-02 1 1  ON 25
  eSi_6                 2.065450e-02 1 1  ON 26
  eSi_7                 6.936464e-02 1 1  ON 27
  eSi_8                 2.291831e-01 1 1  ON 28
  eSi_9                 1.811506e-01 1 1  ON 29
   eH_0                -5.586582e-01 1 1  ON 30
   eH_1                -5.282151e-01 1 1  ON 31
   eH_2                -3.875110e-01 1 1  ON 32
   eH_3                -2.638898e-01 1 1  ON 33
   eH_4                -1.468138e-01 1 1  ON 34
   eH_5                -4.467901e-02 1 1  ON 35
   eH_6                 5.883180e-02 1 1  ON 36
   eH_7                 1.550478e-01 1 1  ON 37
   eH_8                 1.969809e-01 1 1  ON 38
   eH_9                 1.711390e-01 1 1  ON 39
 uuSi_0                -5.417361e-05 1 1  ON 40
 uuSi_1                -1.098362e-04 1 1  ON 41
 uuSi_2                 2.856082e-05 1 1  ON 42
 uuSi_3                 8.997522e-05 1 1  ON 43
 uuSi_4                 7.125179e-06 1 1  ON 44
 uuSi_5                 1.127035e-05 1 1  ON 45
 uuSi_6                -1.066427e-04 1 1  ON 46
 uuSi_7                 1.178728e-04 1 1  ON 47
 uuSi_8                 1.119970e-06 1 1  ON 48
 uuSi_9                 9.477333e-05 1 1  ON 49
uuSi_10                 6.063793e-05 1 1  ON 50
uuSi_11                -6.977633e-05 1 1  ON 51
uuSi_12                 3.982947e-06 1 1  ON 52
uuSi_13                -1.004039e-04 1 1  ON 53
uuSi_14                 3.150117e-07 1 1  ON 54
uuSi_15                -2.556224e-07 1 1  ON 55
uuSi_16                -8.306746e-05 1 1  ON 56
uuSi_17                -8.532244e-05 1 1  ON 57
uuSi_18                 5.515333e-05 1 1  ON 58
uuSi_19                -4.392651e-06 1 1  ON 59
uuSi_20                 4.584266e-05 1 1  ON 60
uuSi_21                -7.318544e-06 1 1  ON 61
uuSi_22                 7.941114e-07 1 1  ON 62
uuSi_23                -9.842404e-06 1 1  ON 63
uuSi_24                 1.528091e-06 1 1  ON 64
uuSi_25                -1.904246e-07 1 1  ON 65
 udSi_0                -5.037053e-05 1 1  ON 66
 udSi_1                 5.389344e-05 1 1  ON 67
 udSi_2                 5.446841e-05 1 1  ON 68
 udSi_3                 6.755377e-05 1 1  ON 69
 udSi_4                 2.537190e-06 1 1  ON 70
 udSi_5                -9.616752e-06 1 1  ON 71
 udSi_6                 1.846269e-04 1 1  ON 72
 udSi_7                 6.686243e-06 1 1  ON 73
 udSi_8                -1.613746e-05 1 1  ON 74
 udSi_9                -1.053469e-04 1 1  ON 75
udSi_10                 3.021466e-05 1 1  ON 76
udSi_11                -1.667276e-05 1 1  ON 77
udSi_12                 9.078769e-06 1 1  ON 78
udSi_13                -7.434306e-05 1 1  ON 79
udSi_14                -1.255502e-05 1 1  ON 80
udSi_15                 2.301792e-07 1 1  ON 81
udSi_16                 1.749342e-04 1 1  ON 82
udSi_17                -9.904327e-05 1 1  ON 83
udSi_18                 1.705860e-05 1 1  ON 84
udSi_19                -4.356152e-06 1 1  ON 85
udSi_20                -4.912479e-06 1 1  ON 86
udSi_21                 2.728379e-06 1 1  ON 87
udSi_22                 1.111427e-08 1 1  ON 88
udSi_23                 1.413291e-06 1 1  ON 89
udSi_24                -7.832426e-07 1 1  ON 90
udSi_25                 6.057443e-08 1 1  ON 91
  uuH_0                -2.381978e-05 1 1  ON 92
  uuH_1                 1.823495e-06 1 1  ON 93
  uuH_2                 1.622594e-05 1 1  ON 94
  uuH_3                 3.860639e-06 1 1  ON 95
  uuH_4                -2.354243e-06 1 1  ON 96
  uuH_5                -4.158903e-09 1 1  ON 97
  uuH_6                 2.320750e-05 1 1  ON 98
  uuH_7                 3.502174e-06 1 1  ON 99
  uuH_8                 2.649825e-06 1 1  ON 100
  uuH_9                 1.098836e-05 1 1  ON 101
 uuH_10                -1.940147e-07 1 1  ON 102
 uuH_11                 1.577471e-06 1 1  ON 103
 uuH_12                -9.416795e-07 1 1  ON 104
 uuH_13                -1.456573e-05 1 1  ON 105
 uuH_14                -7.318726e-07 1 1  ON 106
 uuH_15                 1.243235e-07 1 1  ON 107
 uuH_16                -1.903693e-05 1 1  ON 108
 uuH_17                -6.952469e-06 1 1  ON 109
 uuH_18                -3.147665e-06 1 1  ON 110
 uuH_19                 8.785630e-07 1 1  ON 111
 uuH_20                 1.176534e-05 1 1  ON 112
 uuH_21                 2.599764e-07 1 1  ON 113
 uuH_22                -1.032185e-07 1 1  ON 114
 uuH_23                -3.345702e-06 1 1  ON 115
 uuH_24                 9.619857e-08 1 1  ON 116
 uuH_25                -8.765280e-10 1 1  ON 117
  udH_0                 2.476924e-06 1 1  ON 118
  udH_1                -1.004089e-05 1 1  ON 119
  udH_2                -1.011600e-05 1 1  ON 120
  udH_3                -4.362105e-06 1 1  ON 121
  udH_4                 7.579954e-07 1 1  ON 122
  udH_5                 5.835057e-06 1 1  ON 123
  udH_6                -1.849129e-05 1 1  ON 124
  udH_7                -9.677741e-07 1 1  ON 125
  udH_8                -8.090446e-06 1 1  ON 126
  udH_9                 1.440441e-05 1 1  ON 127
 udH_10                -2.980619e-06 1 1  ON 128
 udH_11                 6.060660e-06 1 1  ON 129
 udH_12                 1.167586e-06 1 1  ON 130
 udH_13                -5.746599e-06 1 1  ON 131
 udH_14                -1.193915e-06 1 1  ON 132
 udH_15                -9.524391e-09 1 1  ON 133
 udH_16                 5.861869e-06 1 1  ON 134
 udH_17                -5.278047e-06 1 1  ON 135
 udH_18                -1.406294e-06 1 1  ON 136
 udH_19                -2.265042e-07 1 1  ON 137
 udH_20                -1.396921e-06 1 1  ON 138
 udH_21                 4.908343e-07 1 1  ON 139
 udH_22                -4.154330e-09 1 1  ON 140
 udH_23                 1.678244e-06 1 1  ON 141
 udH_24                -2.694681e-07 1 1  ON 142
 udH_25                 2.137612e-08 1 1  ON 143
  </optVariables>
   Restore the number of walkers to 21, removing 0 walkers.
</opt>
</optimization-report>
  QMC Execution time = 15.72 secs

=========================================================
  Start QMCFixedSampleLinearOptimize
  File Root qmc.s002 append = no 
=========================================================
  Skip QMCDriver::putQMCInfo 
  Resetting Properties of the walkers 1 x 14

=========================================================
  Start VMC
  File Root qmc.s002 append = no 
=========================================================
Using existing walkers 
  Resetting Properties of the walkers 1 x 14

<vmc function="put">
  qmc_counter=2  my_counter=0
  time step      = 0.5
  blocks         = 20
  steps          = 298
  substeps       = 4
  current        = 0
  target samples = 1e+06
  walkers/mpi    = 21

  stepsbetweensamples = 1
  SpinMoves      = no
<parameter name="blocks" condition="int">20</parameter>
<parameter name="blocks_between_recompute" condition="int">0</parameter>
<parameter name="check_properties" condition="int">100</parameter>
<parameter name="checkproperties" condition="int">100</parameter>
<parameter name="current" condition="int">0</parameter>
<parameter name="dmcwalkersperthread" condition="real">5953</parameter>
<parameter name="maxcpusecs" condition="real">3.6e+05</parameter>
<parameter name="record_configs" condition="int">0</parameter>
<parameter name="record_walkers" condition="int">1</parameter>
<parameter name="recordconfigs" condition="int">0</parameter>
<parameter name="recordwalkers" condition="int">1</parameter>
<parameter name="rewind" condition="int">0</parameter>
<parameter name="samples" condition="real">1e+06</parameter>
<parameter name="samplesperthread" condition="real">5953</parameter>
<parameter name="spinmass" condition="double">1</parameter>
<parameter name="spinmoves" condition="string">no</parameter>
<parameter name="steps" condition="int">298</parameter>
<parameter name="stepsbetweensamples" condition="int">1</parameter>
<parameter name="store_configs" condition="int">0</parameter>
<parameter name="storeconfigs" condition="int">0</parameter>
<parameter name="sub_steps" condition="int">4</parameter>
<parameter name="substeps" condition="int">4</parameter>
<parameter name="tau" condition="au">0.5</parameter>
<parameter name="time_step" condition="au">0.5</parameter>
<parameter name="timestep" condition="au">0.5</parameter>
<parameter name="use_drift" condition="string">no</parameter>
<parameter name="usedrift" condition="string">no</parameter>
<parameter name="walkers" condition="int">1</parameter>
<parameter name="warmup_steps" condition="int">100</parameter>
<parameter name="warmupsteps" condition="int">100</parameter>
  DumpConfig==false Nothing (configurations, state) will be saved.
  Walker Samples are dumped every 1 steps.
</vmc>
    Restarting, cummulative properties:
      energy     = -6.255
      variance   = 0
      r2accepted = 1e-10
      r2proposed = 1e-10
  Set drift_modifier UNR parameter a = 1
 Using QMCCostFunction::QMCCostFunction
  Set drift_modifier UNR parameter a = 1.0000e+00
  EstimatorManagerBase::add replace LocalEnergy estimator.
<optimization-report>
<vmc stage="main" blocks="20">
  Cannot make clones again. Use existing 21 clones
  Initial partition of walkers 0 1 2 3 4 5 6 7 8 9 10 11 12 13 14 15 16 17 18 19 20 21 

  Using Particle by Particle moves
  Walker moves without drift
  Total Sample Size   =1000104
  Walker distribution on root = 0 1 2 3 4 5 6 7 8 9 10 11 12 13 14 15 16 17 18 19 20 21 
  Using Locality Approximation
===== Memory Usage after the buffer registration =====
Available memory on node 0, free + buffers : 562542 MB
Memory footprint by rank 0 on node 0       : 616 MB
==================================================
  Anonymous Buffer size per walker : 19168 Bytes.
MEMORY increase 0 MB VMC::resetRun
====================================================
  SimpleFixedNodeBranch::finalize after a VMC block
    QMC counter        = 2
    time step          = 0.5
    reference energy   = -6.26556
    reference variance = 0.0368456
====================================================
  Execution time = 6.6183e+00
</vmc>
<opt stage="setup">
  <log>
   Reading configurations from h5FileRoot qmc.s002
  QMCCostFunction is created with 21 threads.
  Using Nonlocal PP in Opt: no
   Number of samples loaded to each thread : 5953 5953 5953 5953 5953 5953 5953 5953 5953 5953 5953 5953 5953 5953 5953 5953 5953 5953 5953 5953 5953 
  VMC Eavg = -6.2850e+00
  VMC Evar = 2.1900e-01
  Total weights = 1.0001e+06
  Execution time = 6.3938e+00
  </log>
</opt>
<opt stage="main" walkers="1000104">
  <log>

*****************************************
Building overlap and Hamiltonian matrices
*****************************************

Among totally 144 optimized parameters, largest LM parameter change : 2.3322e-02 at parameter 30

******************************************************************************
Init Cost =  -5.9598e+00    New Cost =  -5.9598e+00  Delta Cost =  -4.1478e-05
******************************************************************************

The new set of parameters is valid. Updating the trial wave function!

*****************************************************************************
Applying the update for shift_i =   1.0000e-02     and shift_s =   1.5625e-02
*****************************************************************************
  Execution time = 1.5656e+01
  </log>
  <optVariables href="qmc.s002.opt.xml">
   uu_0                 5.517968e-01 1 1  ON 0
   uu_1                 3.543308e-01 1 1  ON 1
   uu_2                 2.291497e-01 1 1  ON 2
   uu_3                 1.412967e-01 1 1  ON 3
   uu_4                 8.438271e-02 1 1  ON 4
   uu_5                 4.044674e-02 1 1  ON 5
   uu_6                 3.194211e-03 1 1  ON 6
   uu_7                -2.305145e-02 1 1  ON 7
   uu_8                -3.779436e-02 1 1  ON 8
   uu_9                -4.388479e-02 1 1  ON 9
   ud_0                 9.446147e-01 1 1  ON 10
   ud_1                 6.125726e-01 1 1  ON 11
   ud_2                 4.012268e-01 1 1  ON 12
   ud_3                 2.568690e-01 1 1  ON 13
   ud_4                 1.668695e-01 1 1  ON 14
   ud_5                 1.051994e-01 1 1  ON 15
   ud_6                 5.508818e-02 1 1  ON 16
   ud_7                 1.395259e-02 1 1  ON 17
   ud_8                -1.704674e-02 1 1  ON 18
   ud_9                -3.337118e-02 1 1  ON 19
  eSi_0                -4.521892e-01 1 1  ON 20
  eSi_1                -1.659409e-01 1 1  ON 21
  eSi_2                -9.656667e-02 1 1  ON 22
  eSi_3                 1.586093e-03 1 1  ON 23
  eSi_4                 6.380190e-02 1 1  ON 24
  eSi_5                 3.153998e-02 1 1  ON 25
  eSi_6                 1.956904e-02 1 1  ON 26
  eSi_7                 6.951068e-02 1 1  ON 27
  eSi_8                 2.355704e-01 1 1  ON 28
  eSi_9                 1.965190e-01 1 1  ON 29
   eH_0                -5.819802e-01 1 1  ON 30
   eH_1                -5.486506e-01 1 1  ON 31
   eH_2                -4.032076e-01 1 1  ON 32
   eH_3                -2.757767e-01 1 1  ON 33
   eH_4                -1.560763e-01 1 1  ON 34
   eH_5                -5.453229e-02 1 1  ON 35
   eH_6                 4.908114e-02 1 1  ON 36
   eH_7                 1.491874e-01 1 1  ON 37
   eH_8                 1.908475e-01 1 1  ON 38
   eH_9                 1.700139e-01 1 1  ON 39
 uuSi_0                -4.933934e-05 1 1  ON 40
 uuSi_1                -1.038988e-04 1 1  ON 41
 uuSi_2                 2.381414e-05 1 1  ON 42
 uuSi_3                 8.644905e-05 1 1  ON 43
 uuSi_4                 7.998280e-06 1 1  ON 44
 uuSi_5                 1.109664e-05 1 1  ON 45
 uuSi_6                -1.049355e-04 1 1  ON 46
 uuSi_7                 1.091173e-04 1 1  ON 47
 uuSi_8                -3.661456e-06 1 1  ON 48
 uuSi_9                 8.970213e-05 1 1  ON 49
uuSi_10                 5.911289e-05 1 1  ON 50
uuSi_11                -6.209319e-05 1 1  ON 51
uuSi_12                 4.995646e-06 1 1  ON 52
uuSi_13                -9.485289e-05 1 1  ON 53
uuSi_14                -6.548084e-07 1 1  ON 54
uuSi_15                -2.656148e-07 1 1  ON 55
uuSi_16                -8.452254e-05 1 1  ON 56
uuSi_17                -7.992003e-05 1 1  ON 57
uuSi_18                 4.971887e-05 1 1  ON 58
uuSi_19                -4.397682e-06 1 1  ON 59
uuSi_20                 4.412166e-05 1 1  ON 60
uuSi_21                -6.564507e-06 1 1  ON 61
uuSi_22                 7.482805e-07 1 1  ON 62
uuSi_23                -9.218260e-06 1 1  ON 63
uuSi_24                 1.387545e-06 1 1  ON 64
uuSi_25                -1.758497e-07 1 1  ON 65
 udSi_0                -5.133926e-05 1 1  ON 66
 udSi_1                 5.935780e-05 1 1  ON 67
 udSi_2                 6.339594e-05 1 1  ON 68
 udSi_3                 7.078643e-05 1 1  ON 69
 udSi_4                 2.016969e-06 1 1  ON 70
 udSi_5                -9.783806e-06 1 1  ON 71
 udSi_6                 1.981084e-04 1 1  ON 72
 udSi_7                 1.421200e-05 1 1  ON 73
 udSi_8                -9.645251e-06 1 1  ON 74
 udSi_9                -1.198820e-04 1 1  ON 75
udSi_10                 3.380924e-05 1 1  ON 76
udSi_11                -2.870822e-05 1 1  ON 77
udSi_12                 8.507171e-06 1 1  ON 78
udSi_13                -7.605547e-05 1 1  ON 79
udSi_14                -1.174925e-05 1 1  ON 80
udSi_15                 2.107310e-07 1 1  ON 81
udSi_16                 1.950601e-04 1 1  ON 82
udSi_17                -1.079748e-04 1 1  ON 83
udSi_18                 2.582472e-05 1 1  ON 84
udSi_19                -4.909135e-06 1 1  ON 85
udSi_20                -7.631880e-06 1 1  ON 86
udSi_21                 1.818876e-06 1 1  ON 87
udSi_22                 1.180677e-07 1 1  ON 88
udSi_23                 2.034185e-06 1 1  ON 89
udSi_24                -6.811831e-07 1 1  ON 90
udSi_25                 4.294286e-08 1 1  ON 91
  uuH_0                -2.665717e-05 1 1  ON 92
  uuH_1                -3.328344e-06 1 1  ON 93
  uuH_2                 1.622743e-05 1 1  ON 94
  uuH_3                 7.138748e-06 1 1  ON 95
  uuH_4                -1.942144e-06 1 1  ON 96
  uuH_5                 9.200901e-07 1 1  ON 97
  uuH_6                 1.938122e-05 1 1  ON 98
  uuH_7                 5.493136e-06 1 1  ON 99
  uuH_8                 1.516508e-06 1 1  ON 100
  uuH_9                 1.602656e-05 1 1  ON 101
 uuH_10                 1.519840e-06 1 1  ON 102
 uuH_11                 1.038049e-06 1 1  ON 103
 uuH_12                -5.867663e-07 1 1  ON 104
 uuH_13                -1.783273e-05 1 1  ON 105
 uuH_14                -9.789804e-07 1 1  ON 106
 uuH_15                 1.152557e-07 1 1  ON 107
 uuH_16                -2.339462e-05 1 1  ON 108
 uuH_17                -9.265618e-06 1 1  ON 109
 uuH_18                -2.093424e-06 1 1  ON 110
 uuH_19                 6.443944e-07 1 1  ON 111
 uuH_20                 1.357157e-05 1 1  ON 112
 uuH_21                 7.053569e-08 1 1  ON 113
 uuH_22                -6.025724e-08 1 1  ON 114
 uuH_23                -3.742410e-06 1 1  ON 115
 uuH_24                 1.579953e-07 1 1  ON 116
 uuH_25                -1.322190e-08 1 1  ON 117
  udH_0                 2.919371e-06 1 1  ON 118
  udH_1                -9.114575e-06 1 1  ON 119
  udH_2                -1.177649e-05 1 1  ON 120
  udH_3                -5.275919e-06 1 1  ON 121
  udH_4                 5.897552e-07 1 1  ON 122
  udH_5                 6.619810e-06 1 1  ON 123
  udH_6                -1.847044e-05 1 1  ON 124
  udH_7                -1.982621e-06 1 1  ON 125
  udH_8                -9.040522e-06 1 1  ON 126
  udH_9                 1.432878e-05 1 1  ON 127
 udH_10                -4.321470e-06 1 1  ON 128
 udH_11                 8.098416e-06 1 1  ON 129
 udH_12                 1.129149e-06 1 1  ON 130
 udH_13                -4.852119e-06 1 1  ON 131
 udH_14                -1.236668e-06 1 1  ON 132
 udH_15                -1.474614e-09 1 1  ON 133
 udH_16                 6.542788e-06 1 1  ON 134
 udH_17                -3.734493e-06 1 1  ON 135
 udH_18                -3.005347e-06 1 1  ON 136
 udH_19                -2.916841e-08 1 1  ON 137
 udH_20                -1.926446e-06 1 1  ON 138
 udH_21                 6.738278e-07 1 1  ON 139
 udH_22                -3.754049e-08 1 1  ON 140
 udH_23                 1.913584e-06 1 1  ON 141
 udH_24                -3.147286e-07 1 1  ON 142
 udH_25                 2.989770e-08 1 1  ON 143
  </optVariables>
   Restore the number of walkers to 21, removing 0 walkers.
</opt>
</optimization-report>
  QMC Execution time = 15.66 secs

=========================================================
  Start QMCFixedSampleLinearOptimize
  File Root qmc.s003 append = no 
=========================================================
  Skip QMCDriver::putQMCInfo 
  Resetting Properties of the walkers 1 x 14

=========================================================
  Start VMC
  File Root qmc.s003 append = no 
=========================================================
Using existing walkers 
  Resetting Properties of the walkers 1 x 14

<vmc function="put">
  qmc_counter=3  my_counter=0
  time step      = 0.5
  blocks         = 20
  steps          = 298
  substeps       = 4
  current        = 0
  target samples = 1e+06
  walkers/mpi    = 21

  stepsbetweensamples = 1
  SpinMoves      = no
<parameter name="blocks" condition="int">20</parameter>
<parameter name="blocks_between_recompute" condition="int">0</parameter>
<parameter name="check_properties" condition="int">100</parameter>
<parameter name="checkproperties" condition="int">100</parameter>
<parameter name="current" condition="int">0</parameter>
<parameter name="dmcwalkersperthread" condition="real">5953</parameter>
<parameter name="maxcpusecs" condition="real">3.6e+05</parameter>
<parameter name="record_configs" condition="int">0</parameter>
<parameter name="record_walkers" condition="int">1</parameter>
<parameter name="recordconfigs" condition="int">0</parameter>
<parameter name="recordwalkers" condition="int">1</parameter>
<parameter name="rewind" condition="int">0</parameter>
<parameter name="samples" condition="real">1e+06</parameter>
<parameter name="samplesperthread" condition="real">5953</parameter>
<parameter name="spinmass" condition="double">1</parameter>
<parameter name="spinmoves" condition="string">no</parameter>
<parameter name="steps" condition="int">298</parameter>
<parameter name="stepsbetweensamples" condition="int">1</parameter>
<parameter name="store_configs" condition="int">0</parameter>
<parameter name="storeconfigs" condition="int">0</parameter>
<parameter name="sub_steps" condition="int">4</parameter>
<parameter name="substeps" condition="int">4</parameter>
<parameter name="tau" condition="au">0.5</parameter>
<parameter name="time_step" condition="au">0.5</parameter>
<parameter name="timestep" condition="au">0.5</parameter>
<parameter name="use_drift" condition="string">no</parameter>
<parameter name="usedrift" condition="string">no</parameter>
<parameter name="walkers" condition="int">1</parameter>
<parameter name="warmup_steps" condition="int">100</parameter>
<parameter name="warmupsteps" condition="int">100</parameter>
  DumpConfig==false Nothing (configurations, state) will be saved.
  Walker Samples are dumped every 1 steps.
</vmc>
    Restarting, cummulative properties:
      energy     = -6.258
      variance   = 0
      r2accepted = 1e-10
      r2proposed = 1e-10
  Set drift_modifier UNR parameter a = 1
 Using QMCCostFunction::QMCCostFunction
  Set drift_modifier UNR parameter a = 1.0000e+00
  EstimatorManagerBase::add replace LocalEnergy estimator.
<optimization-report>
<vmc stage="main" blocks="20">
  Cannot make clones again. Use existing 21 clones
  Initial partition of walkers 0 1 2 3 4 5 6 7 8 9 10 11 12 13 14 15 16 17 18 19 20 21 

  Using Particle by Particle moves
  Walker moves without drift
  Total Sample Size   =1000104
  Walker distribution on root = 0 1 2 3 4 5 6 7 8 9 10 11 12 13 14 15 16 17 18 19 20 21 
  Using Locality Approximation
===== Memory Usage after the buffer registration =====
Available memory on node 0, free + buffers : 562573 MB
Memory footprint by rank 0 on node 0       : 627 MB
==================================================
  Anonymous Buffer size per walker : 19168 Bytes.
MEMORY increase 0 MB VMC::resetRun
====================================================
  SimpleFixedNodeBranch::finalize after a VMC block
    QMC counter        = 3
    time step          = 0.5
    reference energy   = -6.25273
    reference variance = 0.0435661
====================================================
  Execution time = 6.6216e+00
</vmc>
<opt stage="setup">
  <log>
   Reading configurations from h5FileRoot qmc.s003
  QMCCostFunction is created with 21 threads.
  Using Nonlocal PP in Opt: no
   Number of samples loaded to each thread : 5953 5953 5953 5953 5953 5953 5953 5953 5953 5953 5953 5953 5953 5953 5953 5953 5953 5953 5953 5953 5953 
  VMC Eavg = -6.2836e+00
  VMC Evar = 2.4223e-01
  Total weights = 1.0001e+06
  Execution time = 6.4242e+00
  </log>
</opt>
<opt stage="main" walkers="1000104">
  <log>

*****************************************
Building overlap and Hamiltonian matrices
*****************************************

Among totally 144 optimized parameters, largest LM parameter change : 1.8857e-02 at parameter 31

******************************************************************************
Init Cost =  -5.9573e+00    New Cost =  -5.9575e+00  Delta Cost =  -1.8056e-04
******************************************************************************

The new set of parameters is valid. Updating the trial wave function!

*****************************************************************************
Applying the update for shift_i =   1.0000e-02     and shift_s =   3.9062e-03
*****************************************************************************
  Execution time = 1.5688e+01
  </log>
  <optVariables href="qmc.s003.opt.xml">
   uu_0                 5.458015e-01 1 1  ON 0
   uu_1                 3.504244e-01 1 1  ON 1
   uu_2                 2.298205e-01 1 1  ON 2
   uu_3                 1.458797e-01 1 1  ON 3
   uu_4                 9.049643e-02 1 1  ON 4
   uu_5                 4.504486e-02 1 1  ON 5
   uu_6                 7.012227e-03 1 1  ON 6
   uu_7                -1.878505e-02 1 1  ON 7
   uu_8                -3.342524e-02 1 1  ON 8
   uu_9                -3.987245e-02 1 1  ON 9
   ud_0                 9.440412e-01 1 1  ON 10
   ud_1                 6.151360e-01 1 1  ON 11
   ud_2                 4.063392e-01 1 1  ON 12
   ud_3                 2.643626e-01 1 1  ON 13
   ud_4                 1.755073e-01 1 1  ON 14
   ud_5                 1.135090e-01 1 1  ON 15
   ud_6                 6.329704e-02 1 1  ON 16
   ud_7                 2.150668e-02 1 1  ON 17
   ud_8                -9.766431e-03 1 1  ON 18
   ud_9                -2.792673e-02 1 1  ON 19
  eSi_0                -4.545939e-01 1 1  ON 20
  eSi_1                -1.720244e-01 1 1  ON 21
  eSi_2                -1.026786e-01 1 1  ON 22
  eSi_3                -5.914874e-03 1 1  ON 23
  eSi_4                 5.636945e-02 1 1  ON 24
  eSi_5                 3.174547e-02 1 1  ON 25
  eSi_6                 1.581992e-02 1 1  ON 26
  eSi_7                 6.646472e-02 1 1  ON 27
  eSi_8                 2.424495e-01 1 1  ON 28
  eSi_9                 2.116337e-01 1 1  ON 29
   eH_0                -5.996601e-01 1 1  ON 30
   eH_1                -5.675080e-01 1 1  ON 31
   eH_2                -4.200579e-01 1 1  ON 32
   eH_3                -2.873111e-01 1 1  ON 33
   eH_4                -1.648188e-01 1 1  ON 34
   eH_5                -6.248018e-02 1 1  ON 35
   eH_6                 4.149714e-02 1 1  ON 36
   eH_7                 1.401210e-01 1 1  ON 37
   eH_8                 1.833183e-01 1 1  ON 38
   eH_9                 1.645537e-01 1 1  ON 39
 uuSi_0                -5.672264e-05 1 1  ON 40
 uuSi_1                -1.034926e-04 1 1  ON 41
 uuSi_2                 3.408096e-05 1 1  ON 42
 uuSi_3                 9.202226e-05 1 1  ON 43
 uuSi_4                 6.874122e-06 1 1  ON 44
 uuSi_5                 1.117846e-05 1 1  ON 45
 uuSi_6                -9.657785e-05 1 1  ON 46
 uuSi_7                 1.244633e-04 1 1  ON 47
 uuSi_8                 2.089190e-06 1 1  ON 48
 uuSi_9                 8.576657e-05 1 1  ON 49
uuSi_10                 6.239497e-05 1 1  ON 50
uuSi_11                -7.316758e-05 1 1  ON 51
uuSi_12                 4.452940e-06 1 1  ON 52
uuSi_13                -1.032921e-04 1 1  ON 53
uuSi_14                -1.682305e-07 1 1  ON 54
uuSi_15                -2.528203e-07 1 1  ON 55
uuSi_16                -7.817055e-05 1 1  ON 56
uuSi_17                -8.959782e-05 1 1  ON 57
uuSi_18                 5.595661e-05 1 1  ON 58
uuSi_19                -4.646291e-06 1 1  ON 59
uuSi_20                 4.750238e-05 1 1  ON 60
uuSi_21                -7.113926e-06 1 1  ON 61
uuSi_22                 7.869503e-07 1 1  ON 62
uuSi_23                -1.045619e-05 1 1  ON 63
uuSi_24                 1.487060e-06 1 1  ON 64
uuSi_25                -1.849473e-07 1 1  ON 65
 udSi_0                -5.473223e-05 1 1  ON 66
 udSi_1                 9.455652e-05 1 1  ON 67
 udSi_2                 7.074001e-05 1 1  ON 68
 udSi_3                 5.841209e-05 1 1  ON 69
 udSi_4                -1.525680e-06 1 1  ON 70
 udSi_5                -1.276812e-05 1 1  ON 71
 udSi_6                 2.553644e-04 1 1  ON 72
 udSi_7                -1.277809e-05 1 1  ON 73
 udSi_8                -7.057013e-06 1 1  ON 74
 udSi_9                -1.492051e-04 1 1  ON 75
udSi_10                 2.097830e-05 1 1  ON 76
udSi_11                -1.350207e-05 1 1  ON 77
udSi_12                 6.559670e-06 1 1  ON 78
udSi_13                -6.404123e-05 1 1  ON 79
udSi_14                -1.248320e-05 1 1  ON 80
udSi_15                 4.267136e-07 1 1  ON 81
udSi_16                 2.176529e-04 1 1  ON 82
udSi_17                -9.761027e-05 1 1  ON 83
udSi_18                 1.314690e-05 1 1  ON 84
udSi_19                -3.064718e-06 1 1  ON 85
udSi_20                -1.405370e-05 1 1  ON 86
udSi_21                 3.685841e-06 1 1  ON 87
udSi_22                -2.086733e-07 1 1  ON 88
udSi_23                 3.473788e-06 1 1  ON 89
udSi_24                -1.051052e-06 1 1  ON 90
udSi_25                 1.109010e-07 1 1  ON 91
  uuH_0                -2.364781e-05 1 1  ON 92
  uuH_1                 8.260112e-06 1 1  ON 93
  uuH_2                 1.749510e-05 1 1  ON 94
  uuH_3                 1.273118e-06 1 1  ON 95
  uuH_4                -3.345791e-06 1 1  ON 96
  uuH_5                 4.073027e-07 1 1  ON 97
  uuH_6                 3.660165e-05 1 1  ON 98
  uuH_7                -6.476733e-06 1 1  ON 99
  uuH_8                 4.099883e-06 1 1  ON 100
  uuH_9                 2.804510e-06 1 1  ON 101
 uuH_10                -3.470668e-06 1 1  ON 102
 uuH_11                 5.944082e-06 1 1  ON 103
 uuH_12                -1.892293e-06 1 1  ON 104
 uuH_13                -8.884764e-06 1 1  ON 105
 uuH_14                -5.064674e-07 1 1  ON 106
 uuH_15                 1.841207e-07 1 1  ON 107
 uuH_16                -1.310530e-05 1 1  ON 108
 uuH_17                -1.878051e-06 1 1  ON 109
 uuH_18                -6.894699e-06 1 1  ON 110
 uuH_19                 1.587850e-06 1 1  ON 111
 uuH_20                 9.215224e-06 1 1  ON 112
 uuH_21                 6.402196e-07 1 1  ON 113
 uuH_22                -1.872583e-07 1 1  ON 114
 uuH_23                -2.759321e-06 1 1  ON 115
 uuH_24                 2.403335e-08 1 1  ON 116
 uuH_25                 1.154454e-08 1 1  ON 117
  udH_0                 3.542622e-06 1 1  ON 118
  udH_1                -9.464661e-06 1 1  ON 119
  udH_2                -1.236529e-05 1 1  ON 120
  udH_3                -5.248321e-06 1 1  ON 121
  udH_4                 7.157870e-07 1 1  ON 122
  udH_5                 6.853805e-06 1 1  ON 123
  udH_6                -1.990224e-05 1 1  ON 124
  udH_7                -2.477849e-06 1 1  ON 125
  udH_8                -9.253411e-06 1 1  ON 126
  udH_9                 1.479159e-05 1 1  ON 127
 udH_10                -4.154196e-06 1 1  ON 128
 udH_11                 8.182206e-06 1 1  ON 129
 udH_12                 1.195224e-06 1 1  ON 130
 udH_13                -4.493612e-06 1 1  ON 131
 udH_14                -1.274168e-06 1 1  ON 132
 udH_15                -2.611249e-09 1 1  ON 133
 udH_16                 6.315894e-06 1 1  ON 134
 udH_17                -3.599236e-06 1 1  ON 135
 udH_18                -2.993534e-06 1 1  ON 136
 udH_19                -6.575038e-08 1 1  ON 137
 udH_20                -2.091543e-06 1 1  ON 138
 udH_21                 7.015831e-07 1 1  ON 139
 udH_22                -3.610980e-08 1 1  ON 140
 udH_23                 1.948150e-06 1 1  ON 141
 udH_24                -3.260172e-07 1 1  ON 142
 udH_25                 3.009730e-08 1 1  ON 143
  </optVariables>
   Restore the number of walkers to 21, removing 0 walkers.
</opt>
</optimization-report>
  QMC Execution time = 15.7 secs

=========================================================
  Start QMCFixedSampleLinearOptimize
  File Root qmc.s004 append = no 
=========================================================
  Skip QMCDriver::putQMCInfo 
  Resetting Properties of the walkers 1 x 14

=========================================================
  Start VMC
  File Root qmc.s004 append = no 
=========================================================
Using existing walkers 
  Resetting Properties of the walkers 1 x 14

<vmc function="put">
  qmc_counter=4  my_counter=0
  time step      = 0.5
  blocks         = 20
  steps          = 298
  substeps       = 4
  current        = 0
  target samples = 1e+06
  walkers/mpi    = 21

  stepsbetweensamples = 1
  SpinMoves      = no
<parameter name="blocks" condition="int">20</parameter>
<parameter name="blocks_between_recompute" condition="int">0</parameter>
<parameter name="check_properties" condition="int">100</parameter>
<parameter name="checkproperties" condition="int">100</parameter>
<parameter name="current" condition="int">0</parameter>
<parameter name="dmcwalkersperthread" condition="real">5953</parameter>
<parameter name="maxcpusecs" condition="real">3.6e+05</parameter>
<parameter name="record_configs" condition="int">0</parameter>
<parameter name="record_walkers" condition="int">1</parameter>
<parameter name="recordconfigs" condition="int">0</parameter>
<parameter name="recordwalkers" condition="int">1</parameter>
<parameter name="rewind" condition="int">0</parameter>
<parameter name="samples" condition="real">1e+06</parameter>
<parameter name="samplesperthread" condition="real">5953</parameter>
<parameter name="spinmass" condition="double">1</parameter>
<parameter name="spinmoves" condition="string">no</parameter>
<parameter name="steps" condition="int">298</parameter>
<parameter name="stepsbetweensamples" condition="int">1</parameter>
<parameter name="store_configs" condition="int">0</parameter>
<parameter name="storeconfigs" condition="int">0</parameter>
<parameter name="sub_steps" condition="int">4</parameter>
<parameter name="substeps" condition="int">4</parameter>
<parameter name="tau" condition="au">0.5</parameter>
<parameter name="time_step" condition="au">0.5</parameter>
<parameter name="timestep" condition="au">0.5</parameter>
<parameter name="use_drift" condition="string">no</parameter>
<parameter name="usedrift" condition="string">no</parameter>
<parameter name="walkers" condition="int">1</parameter>
<parameter name="warmup_steps" condition="int">100</parameter>
<parameter name="warmupsteps" condition="int">100</parameter>
  DumpConfig==false Nothing (configurations, state) will be saved.
  Walker Samples are dumped every 1 steps.
</vmc>
    Restarting, cummulative properties:
      energy     = -6.257
      variance   = 0
      r2accepted = 1e-10
      r2proposed = 1e-10
  Set drift_modifier UNR parameter a = 1
 Using QMCCostFunction::QMCCostFunction
  Set drift_modifier UNR parameter a = 1.0000e+00
  EstimatorManagerBase::add replace LocalEnergy estimator.
<optimization-report>
<vmc stage="main" blocks="20">
  Cannot make clones again. Use existing 21 clones
  Initial partition of walkers 0 1 2 3 4 5 6 7 8 9 10 11 12 13 14 15 16 17 18 19 20 21 

  Using Particle by Particle moves
  Walker moves without drift
  Total Sample Size   =1000104
  Walker distribution on root = 0 1 2 3 4 5 6 7 8 9 10 11 12 13 14 15 16 17 18 19 20 21 
  Using Locality Approximation
===== Memory Usage after the buffer registration =====
Available memory on node 0, free + buffers : 562540 MB
Memory footprint by rank 0 on node 0       : 645 MB
==================================================
  Anonymous Buffer size per walker : 19168 Bytes.
MEMORY increase 0 MB VMC::resetRun
====================================================
  SimpleFixedNodeBranch::finalize after a VMC block
    QMC counter        = 4
    time step          = 0.5
    reference energy   = -6.27826
    reference variance = 0.0235827
====================================================
  Execution time = 6.6234e+00
</vmc>
<opt stage="setup">
  <log>
   Reading configurations from h5FileRoot qmc.s004
  QMCCostFunction is created with 21 threads.
  Using Nonlocal PP in Opt: no
   Number of samples loaded to each thread : 5953 5953 5953 5953 5953 5953 5953 5953 5953 5953 5953 5953 5953 5953 5953 5953 5953 5953 5953 5953 5953 
  VMC Eavg = -6.2847e+00
  VMC Evar = 2.6148e-01
  Total weights = 1.0001e+06
  Execution time = 6.4103e+00
  </log>
</opt>
<opt stage="main" walkers="1000104">
  <log>

*****************************************
Building overlap and Hamiltonian matrices
*****************************************

Among totally 144 optimized parameters, largest LM parameter change : 1.8199e-02 at parameter 30

******************************************************************************
Init Cost =  -5.9574e+00    New Cost =  -5.9575e+00  Delta Cost =  -8.2712e-05
******************************************************************************

The new set of parameters is valid. Updating the trial wave function!

*****************************************************************************
Applying the update for shift_i =   1.0000e-02     and shift_s =   3.9062e-03
*****************************************************************************
  Execution time = 1.5686e+01
  </log>
  <optVariables href="qmc.s004.opt.xml">
   uu_0                 5.392868e-01 1 1  ON 0
   uu_1                 3.480229e-01 1 1  ON 1
   uu_2                 2.337723e-01 1 1  ON 2
   uu_3                 1.526860e-01 1 1  ON 3
   uu_4                 9.721567e-02 1 1  ON 4
   uu_5                 5.208173e-02 1 1  ON 5
   uu_6                 1.428339e-02 1 1  ON 6
   uu_7                -1.238152e-02 1 1  ON 7
   uu_8                -2.821307e-02 1 1  ON 8
   uu_9                -3.633439e-02 1 1  ON 9
   ud_0                 9.472259e-01 1 1  ON 10
   ud_1                 6.189583e-01 1 1  ON 11
   ud_2                 4.119461e-01 1 1  ON 12
   ud_3                 2.707193e-01 1 1  ON 13
   ud_4                 1.824540e-01 1 1  ON 14
   ud_5                 1.207100e-01 1 1  ON 15
   ud_6                 7.042639e-02 1 1  ON 16
   ud_7                 2.893612e-02 1 1  ON 17
   ud_8                -4.236158e-03 1 1  ON 18
   ud_9                -2.158440e-02 1 1  ON 19
  eSi_0                -4.635465e-01 1 1  ON 20
  eSi_1                -1.760466e-01 1 1  ON 21
  eSi_2                -1.063382e-01 1 1  ON 22
  eSi_3                -9.852674e-03 1 1  ON 23
  eSi_4                 5.209486e-02 1 1  ON 24
  eSi_5                 3.103711e-02 1 1  ON 25
  eSi_6                 1.397333e-02 1 1  ON 26
  eSi_7                 6.657036e-02 1 1  ON 27
  eSi_8                 2.424522e-01 1 1  ON 28
  eSi_9                 2.249513e-01 1 1  ON 29
   eH_0                -6.178586e-01 1 1  ON 30
   eH_1                -5.826976e-01 1 1  ON 31
   eH_2                -4.333423e-01 1 1  ON 32
   eH_3                -2.988699e-01 1 1  ON 33
   eH_4                -1.741999e-01 1 1  ON 34
   eH_5                -7.001780e-02 1 1  ON 35
   eH_6                 3.594652e-02 1 1  ON 36
   eH_7                 1.361458e-01 1 1  ON 37
   eH_8                 1.787402e-01 1 1  ON 38
   eH_9                 1.575343e-01 1 1  ON 39
 uuSi_0                -6.567490e-05 1 1  ON 40
 uuSi_1                -1.160096e-04 1 1  ON 41
 uuSi_2                 4.559710e-05 1 1  ON 42
 uuSi_3                 1.062806e-04 1 1  ON 43
 uuSi_4                 7.120033e-06 1 1  ON 44
 uuSi_5                 1.203605e-05 1 1  ON 45
 uuSi_6                -9.375288e-05 1 1  ON 46
 uuSi_7                 1.364275e-04 1 1  ON 47
 uuSi_8                 8.327746e-06 1 1  ON 48
 uuSi_9                 8.726735e-05 1 1  ON 49
uuSi_10                 7.216865e-05 1 1  ON 50
uuSi_11                -9.056628e-05 1 1  ON 51
uuSi_12                 4.029432e-06 1 1  ON 52
uuSi_13                -1.172803e-04 1 1  ON 53
uuSi_14                 3.890573e-07 1 1  ON 54
uuSi_15                -2.494097e-07 1 1  ON 55
uuSi_16                -6.420699e-05 1 1  ON 56
uuSi_17                -1.094455e-04 1 1  ON 57
uuSi_18                 7.112937e-05 1 1  ON 58
uuSi_19                -5.574858e-06 1 1  ON 59
uuSi_20                 4.865036e-05 1 1  ON 60
uuSi_21                -8.904075e-06 1 1  ON 61
uuSi_22                 9.715123e-07 1 1  ON 62
uuSi_23                -1.053815e-05 1 1  ON 63
uuSi_24                 1.779706e-06 1 1  ON 64
uuSi_25                -2.241616e-07 1 1  ON 65
 udSi_0                -5.506547e-05 1 1  ON 66
 udSi_1                 4.688333e-05 1 1  ON 67
 udSi_2                 6.302909e-05 1 1  ON 68
 udSi_3                 8.474155e-05 1 1  ON 69
 udSi_4                 4.146462e-06 1 1  ON 70
 udSi_5                -7.504981e-06 1 1  ON 71
 udSi_6                 1.992066e-04 1 1  ON 72
 udSi_7                 1.864049e-05 1 1  ON 73
 udSi_8                -1.863250e-05 1 1  ON 74
 udSi_9                -1.252779e-04 1 1  ON 75
udSi_10                 4.008636e-05 1 1  ON 76
udSi_11                -2.653168e-05 1 1  ON 77
udSi_12                 1.141983e-05 1 1  ON 78
udSi_13                -8.850145e-05 1 1  ON 79
udSi_14                -1.477575e-05 1 1  ON 80
udSi_15                 2.380118e-07 1 1  ON 81
udSi_16                 2.135878e-04 1 1  ON 82
udSi_17                -1.207121e-04 1 1  ON 83
udSi_18                 2.371840e-05 1 1  ON 84
udSi_19                -5.581342e-06 1 1  ON 85
udSi_20                -6.896140e-06 1 1  ON 86
udSi_21                 3.007060e-06 1 1  ON 87
udSi_22                 2.609425e-08 1 1  ON 88
udSi_23                 1.881869e-06 1 1  ON 89
udSi_24                -8.957830e-07 1 1  ON 90
udSi_25                 7.673277e-08 1 1  ON 91
  uuH_0                -2.406472e-05 1 1  ON 92
  uuH_1                 3.191455e-06 1 1  ON 93
  uuH_2                 1.602098e-05 1 1  ON 94
  uuH_3                 3.886611e-06 1 1  ON 95
  uuH_4                -2.530395e-06 1 1  ON 96
  uuH_5                 1.064323e-06 1 1  ON 97
  uuH_6                 2.662405e-05 1 1  ON 98
  uuH_7                 8.497577e-07 1 1  ON 99
  uuH_8                 2.348128e-06 1 1  ON 100
  uuH_9                 8.916954e-06 1 1  ON 101
 uuH_10                -9.361231e-07 1 1  ON 102
 uuH_11                 2.377256e-06 1 1  ON 103
 uuH_12                -9.296889e-07 1 1  ON 104
 uuH_13                -1.392944e-05 1 1  ON 105
 uuH_14                -9.426306e-07 1 1  ON 106
 uuH_15                 1.409941e-07 1 1  ON 107
 uuH_16                -1.477753e-05 1 1  ON 108
 uuH_17                -7.746138e-06 1 1  ON 109
 uuH_18                -3.009152e-06 1 1  ON 110
 uuH_19                 8.487275e-07 1 1  ON 111
 uuH_20                 1.078685e-05 1 1  ON 112
 uuH_21                 2.715841e-07 1 1  ON 113
 uuH_22                -1.002658e-07 1 1  ON 114
 uuH_23                -2.985691e-06 1 1  ON 115
 uuH_24                 7.939681e-08 1 1  ON 116
 uuH_25                -4.851606e-10 1 1  ON 117
  udH_0                 2.934020e-06 1 1  ON 118
  udH_1                -9.696524e-06 1 1  ON 119
  udH_2                -1.162026e-05 1 1  ON 120
  udH_3                -4.808432e-06 1 1  ON 121
  udH_4                 7.065767e-07 1 1  ON 122
  udH_5                 7.058370e-06 1 1  ON 123
  udH_6                -1.979701e-05 1 1  ON 124
  udH_7                -2.364295e-06 1 1  ON 125
  udH_8                -8.319279e-06 1 1  ON 126
  udH_9                 1.532456e-05 1 1  ON 127
 udH_10                -3.764224e-06 1 1  ON 128
 udH_11                 7.291830e-06 1 1  ON 129
 udH_12                 8.986868e-07 1 1  ON 130
 udH_13                -4.988709e-06 1 1  ON 131
 udH_14                -1.028154e-06 1 1  ON 132
 udH_15                 4.353453e-09 1 1  ON 133
 udH_16                 5.423390e-06 1 1  ON 134
 udH_17                -3.776891e-06 1 1  ON 135
 udH_18                -2.422103e-06 1 1  ON 136
 udH_19                 7.122218e-08 1 1  ON 137
 udH_20                -1.568532e-06 1 1  ON 138
 udH_21                 5.202853e-07 1 1  ON 139
 udH_22                -3.418550e-08 1 1  ON 140
 udH_23                 1.777087e-06 1 1  ON 141
 udH_24                -2.762462e-07 1 1  ON 142
 udH_25                 2.516701e-08 1 1  ON 143
  </optVariables>
   Restore the number of walkers to 21, removing 0 walkers.
</opt>
</optimization-report>
  QMC Execution time = 15.69 secs
BRANCH resetRun
  Continue with the same input as the previous block.
 SimpleFixedNodeBranch::resetRun detected changes in <parameter>'s 
 BranchMode : 0000001100 0000001100
 iParam (old):                100                 1                 4                 0                 0                 0                 1                 0
 iParam (new):                100                 1                 4                 0                 0                 0                 1                 0
 vParam (old):                0.5               0.1                 1                 1                 1                 1                 1                 1                 1                 0                 0                 1                10                 1                 1                 1                 1
 vParam (new):                0.5               0.1                 1                 1                 1                 1                 1                 1                 1                 0                 0                 1                10                 1                 1                 1                 1

=========================================================
  Start VMC
  File Root qmc.s005 append = no 
=========================================================
Resetting walkers
  Using the current 21 walkers.
  Total number of walkers: 168
  Total weight: 168
  Resetting Properties of the walkers 1 x 14

<vmc function="put">
  qmc_counter=0  my_counter=0
  time step      = 0.5
  blocks         = 400
  steps          = 1
  substeps       = 50
  current        = 0
  target samples = 2520
  walkers/mpi    = 21

  stepsbetweensamples = 26
  SpinMoves      = no
<parameter name="blocks" condition="int">400</parameter>
<parameter name="blocks_between_recompute" condition="int">0</parameter>
<parameter name="check_properties" condition="int">100</parameter>
<parameter name="checkproperties" condition="int">100</parameter>
<parameter name="current" condition="int">0</parameter>
<parameter name="dmcwalkersperthread" condition="real">15</parameter>
<parameter name="maxcpusecs" condition="real">360000</parameter>
<parameter name="record_configs" condition="int">0</parameter>
<parameter name="record_walkers" condition="int">26</parameter>
<parameter name="recordconfigs" condition="int">0</parameter>
<parameter name="recordwalkers" condition="int">26</parameter>
<parameter name="rewind" condition="int">0</parameter>
<parameter name="samples" condition="real">2520</parameter>
<parameter name="samplesperthread" condition="real">15</parameter>
<parameter name="spinmass" condition="double">1</parameter>
<parameter name="spinmoves" condition="string">no</parameter>
<parameter name="steps" condition="int">1</parameter>
<parameter name="stepsbetweensamples" condition="int">26</parameter>
<parameter name="store_configs" condition="int">0</parameter>
<parameter name="storeconfigs" condition="int">0</parameter>
<parameter name="sub_steps" condition="int">50</parameter>
<parameter name="substeps" condition="int">50</parameter>
<parameter name="tau" condition="au">0.5</parameter>
<parameter name="time_step" condition="au">0.5</parameter>
<parameter name="timestep" condition="au">0.5</parameter>
<parameter name="use_drift" condition="string">no</parameter>
<parameter name="usedrift" condition="string">no</parameter>
<parameter name="walkers" condition="int">21</parameter>
<parameter name="warmup_steps" condition="int">100</parameter>
<parameter name="warmupsteps" condition="int">100</parameter>
  DumpConfig==true Configurations are dumped to config.h5 with a period of 400 blocks
  Walker Samples are dumped every 26 steps.
</vmc>
  Set drift_modifier UNR parameter a = 1
  EstimatorManagerBase::add replace LocalEnergy estimator.
  Cannot make clones again. Use existing 21 clones
  Initial partition of walkers 0 1 2 3 4 5 6 7 8 9 10 11 12 13 14 15 16 17 18 19 20 21 

  Using Particle by Particle moves
  Walker moves without drift
  Total Sample Size   =2520
  Walker distribution on root = 0 1 2 3 4 5 6 7 8 9 10 11 12 13 14 15 16 17 18 19 20 21 
  Using Locality Approximation
===== Memory Usage after the buffer registration =====
Available memory on node 0, free + buffers : 562531 MB
Memory footprint by rank 0 on node 0       : 645 MB
==================================================
  Anonymous Buffer size per walker : 19168 Bytes.
MEMORY increase 0 MB VMC::resetRun
  samples are written to the config.h5
====================================================
  SimpleFixedNodeBranch::finalize after a VMC block
    QMC counter        = 5
    time step          = 0.5
    reference energy   = -6.27397
    reference variance = 0.0266384
====================================================
  QMC Execution time = 5.133 secs
BRANCH resetRun
 SimpleFixedNodeBranch::resetRun detected changes in <parameter>'s 
 BranchMode : 0000001100 0000001100
 iParam (old):                100                 1                 5              2520                 0                 0                 1                 0
 iParam (new):                500                 1                 5              2520                 0                 0                 1                 0
 vParam (old):                0.5               0.1      -6.273966103      -6.273966103                 1                 1                 1                 1      0.0266383929      -6.273966103                 1                 1                10                 1                 1                 1                 1
 vParam (new):              0.001               0.1      -6.273966103      -6.273966103                 1                 1                 1                 1      0.0266383929      -6.273966103                 1                 1                10                 1                 1                 1                 1

=========================================================
  Start DMC
  File Root qmc.s006 append = no 
=========================================================
Using existing walkers 
  Resetting Properties of the walkers 1 x 14
  Set drift_modifier UNR parameter a = 1
  EstimatorManagerBase::add replace LocalEnergy estimator.
  Cannot make clones again. Use existing 21 clones
  Total number of walkers: 2520
  Total weight: 2520
  Creating WalkerController: target  number of walkers = 2520
  Using WalkerControlMPI for dynamic population control.
  START ALL OVER 
  WalkerControlBase parameters 
    maxCopy = 2
    Max Walkers per MPI rank 631
    Min Walkers per MPI rank 64
    Using non-blocking send/recv
  QMC counter      = 6
  time step        = 0.001
  effective time step = 0.001
  trial energy     = -6.273966103
  reference energy = -6.273966103
  Feedback = 1
  reference variance = 0.0266383929
  target walkers = 2520
  branching cutoff scheme classic
  branch cutoff = 50 75
  Max and minimum walkers per node= 631 64
  QMC Status (BranchMode) = 0000001101
  Initial partition of walkers on a node: 0 15 30 45 60 75 90 105 120 135 150 165 180 195 210 225 240 255 270 285 300 315 
  Updates by particle-by-particle moves
  DMC moves are rejected when a node crossing is detected
  Using Non-local T-moves v1, M. Casula et al., JCP 132, 154113 (2010)
===== Memory Usage after the buffer registration =====
Available memory on node 0, free + buffers : 562531 MB
Memory footprint by rank 0 on node 0       : 645 MB
==================================================
SimpleFixedNodeBranch::checkParameters 
  Average Energy of a population  = -6.26761
  Energy Variance = 0.0479435

  Fluctuating population
  Persistent walkers are killed after 1 MC sweeps
  BranchInterval = 1
  Steps per block = 1000
  Number of blocks = 1000

  DMC Engine Initialization = 0.01201043837 secs

 Warmup is completed after 500

  TauEff     = 0.0009999372614
 TauEff/Tau = 0.9999372614
  Etrial     = -6.278756796
 Running average of energy = -6.27158955
                  Variance = 0.04283793592
branch cutoff = 10 15
