  Input file(s): qmc.dump.qmc.in-wfj.xml 

=====================================================
                    QMCPACK 3.9.9

       (c) Copyright 2003-  QMCPACK developers

                    Please cite:
 J. Kim et al. J. Phys. Cond. Mat. 30 195901 (2018)
      https://doi.org/10.1088/1361-648X/aab9c3

  Git branch: develop
  Last git commit: 51afccc38c709a720e0a3b2699c25cdc16ac35ad
  Last git commit date: Thu Jun 11 17:49:55 2020 -0400
  Last git commit subject: Merge pull request #2531 from mmorale3/add_afqmc_hip
=====================================================
  Global options 

  Total number of MPI ranks = 64
  Number of MPI groups      = 1
  MPI group ID              = 0
  Number of ranks in group  = 64
  MPI ranks per node        = 2
  OMP 1st level threads     = 21
  OMP nested threading disabled or only 1 thread on the 2nd level

  Precision used in this calculation, see definitions in the manual:
  Base precision      = double
  Full precision      = double

  Structure-of-arrays (SoA) optimization enabled

  Input XML = qmc.dump.qmc.in-wfj.xml

  Project = qmc.dump
  date    = 2020-07-09 06:04:37 EDT
  host    = f10n15

 Random Number
 -------------
  Offset for the random number seeds based on time: 949

  Range of prime numbers to use as seeds over processors and threads = 7507-20327


 Particle Set 
 ------------
  Name: ion0
  All the species have the same mass 1
  Particle set size: 5

 Particle Set 
 ------------
  Name: e
  All the species have the same mass 1
  Particle set size: 8

 Wavefunction setup: 
 ------------------- 
  Name: psi0
  LCAO: SoaAtomicBasisSet<MultiQuintic,0>
Reading BasisSet from HDF5 file:qmc.dump.orbs.h5
<input node="atomicBasisSet" name="Gaussian" expandYlm="Gamess" angular="cartesian" elementType="Si" normalized="no" type="Numerical" expM="0" />
  AO BasisSet for Si
   Angular momentum expanded in cartesian functions x^lx y^ly z^lz according to Gamess
   Grid is created by the input paremters in h5
    Using log grid ri = 1e-06 rf = 100 npts = 1001
   R(n,l,m,s) 0 0 0 0
   R(n,l,m,s) 1 0 0 0
   R(n,l,m,s) 2 0 0 0
   R(n,l,m,s) 3 0 0 0
   R(n,l,m,s) 4 0 0 0
   R(n,l,m,s) 5 1 0 0
   R(n,l,m,s) 6 1 0 0
   R(n,l,m,s) 7 1 0 0
   R(n,l,m,s) 8 1 0 0
   R(n,l,m,s) 9 1 0 0
   R(n,l,m,s) 10 2 0 0
   R(n,l,m,s) 11 2 0 0
   R(n,l,m,s) 12 2 0 0
   R(n,l,m,s) 13 2 0 0
   R(n,l,m,s) 14 3 0 0
   R(n,l,m,s) 15 3 0 0
   R(n,l,m,s) 16 3 0 0
   R(n,l,m,s) 17 4 0 0
   R(n,l,m,s) 18 4 0 0
Expanding Ylm (angular function) according to Gamess using cartesian gaussians
Adding 1 cartesian gaussian orbitals for l= 0
Adding 1 cartesian gaussian orbitals for l= 0
Adding 1 cartesian gaussian orbitals for l= 0
Adding 1 cartesian gaussian orbitals for l= 0
Adding 1 cartesian gaussian orbitals for l= 0
Adding 3 cartesian gaussian orbitals for l= 1
Adding 3 cartesian gaussian orbitals for l= 1
Adding 3 cartesian gaussian orbitals for l= 1
Adding 3 cartesian gaussian orbitals for l= 1
Adding 3 cartesian gaussian orbitals for l= 1
Adding 6 cartesian gaussian orbitals for l= 2
Adding 6 cartesian gaussian orbitals for l= 2
Adding 6 cartesian gaussian orbitals for l= 2
Adding 6 cartesian gaussian orbitals for l= 2
Adding 10 cartesian gaussian orbitals for l= 3
Adding 10 cartesian gaussian orbitals for l= 3
Adding 10 cartesian gaussian orbitals for l= 3
Adding 15 cartesian gaussian orbitals for l= 4
Adding 15 cartesian gaussian orbitals for l= 4
  Setting cutoff radius 8.64717e+15

   Maximum Angular Momentum  = 4
   Number of Radial functors = 19
   Basis size                = 104

<input node="atomicBasisSet" name="Gaussian" expandYlm="Gamess" angular="cartesian" elementType="H" normalized="no" type="Numerical" expM="0" />
  AO BasisSet for H
   Angular momentum expanded in cartesian functions x^lx y^ly z^lz according to Gamess
   Grid is created by the input paremters in h5
    Using log grid ri = 1e-06 rf = 100 npts = 1001
   R(n,l,m,s) 0 0 0 0
   R(n,l,m,s) 1 0 0 0
   R(n,l,m,s) 2 0 0 0
   R(n,l,m,s) 3 0 0 0
   R(n,l,m,s) 4 0 0 0
   R(n,l,m,s) 5 1 0 0
   R(n,l,m,s) 6 1 0 0
   R(n,l,m,s) 7 1 0 0
   R(n,l,m,s) 8 1 0 0
   R(n,l,m,s) 9 2 0 0
   R(n,l,m,s) 10 2 0 0
   R(n,l,m,s) 11 2 0 0
   R(n,l,m,s) 12 3 0 0
   R(n,l,m,s) 13 3 0 0
Expanding Ylm (angular function) according to Gamess using cartesian gaussians
Adding 1 cartesian gaussian orbitals for l= 0
Adding 1 cartesian gaussian orbitals for l= 0
Adding 1 cartesian gaussian orbitals for l= 0
Adding 1 cartesian gaussian orbitals for l= 0
Adding 1 cartesian gaussian orbitals for l= 0
Adding 3 cartesian gaussian orbitals for l= 1
Adding 3 cartesian gaussian orbitals for l= 1
Adding 3 cartesian gaussian orbitals for l= 1
Adding 3 cartesian gaussian orbitals for l= 1
Adding 6 cartesian gaussian orbitals for l= 2
Adding 6 cartesian gaussian orbitals for l= 2
Adding 6 cartesian gaussian orbitals for l= 2
Adding 10 cartesian gaussian orbitals for l= 3
Adding 10 cartesian gaussian orbitals for l= 3
  Setting cutoff radius 9.95675e+11

   Maximum Angular Momentum  = 3
   Number of Radial functors = 14
   Basis size                = 55

  Created SPOSet builder named 'LCAOBSet' of type molecularorbital
Creating SPOSet in SlaterDetBuilder::put(xmlNodePtr cur).
spo_name = spo-up
  Building SPOSet 'spo-up' with 'LCAOBSet' basis set.
Creating SPOSet in SlaterDetBuilder::put(xmlNodePtr cur).
spo_name = spo-dn
  Building SPOSet 'spo-dn' with 'LCAOBSet' basis set.
Using Bryan's algorithm for MultiSlaterDeterminant expansion. 
Creating base determinant (up) for MSD expansion. 
Creating base determinant (down) for MSD expansion. 
Found Multideterminants in H5 File
Found determinant list. 
Reading CI expansion from HDF5:qmc.dump.orbs.h5
 Done reading CIs from H5!!
 Sorting unique CIs
 Done Sorting unique CIs
Found 2073 terms in the MSD expansion.
Norm of ci vector (sum of ci^2): 1
Found 1037 unique up determinants.
Found 1037 unique down determinants.
Number of terms in pairs array: 1036
Number of terms in pairs array: 1036
CI coefficients are not optimizable. 
  Added a fermionic WaveFunctionComponent SlaterDet

   Jastrow
   -------
    Name: J2   Type: Two-Body   Function: Bspline

    Radial function for species: u - u
     Number of parameters: 10
     Cusp: -0.25
     Cutoff radius: 10

     Name                        Value Type Recompute Use Index
     ---- ---------------------------- ---- --------- --- -----
     uu_0                 6.264820e-01    1         1  ON     0
     uu_1                 4.546762e-01    1         1  ON     1
     uu_2                 3.036455e-01    1         1  ON     2
     uu_3                 1.979087e-01    1         1  ON     3
     uu_4                 1.231767e-01    1         1  ON     4
     uu_5                 6.993101e-02    1         1  ON     5
     uu_6                 3.211225e-02    1         1  ON     6
     uu_7                 5.961482e-03    1         1  ON     7
     uu_8                -8.639264e-03    1         1  ON     8
     uu_9                -1.283163e-02    1         1  ON     9

    Radial function for species: u - d
     Number of parameters: 10
     Cusp: -0.5
     Cutoff radius: 10

     Name                        Value Type Recompute Use Index
     ---- ---------------------------- ---- --------- --- -----
     ud_0                 1.077814e+00    1         1  ON     0
     ud_1                 7.277536e-01    1         1  ON     1
     ud_2                 4.781040e-01    1         1  ON     2
     ud_3                 3.145396e-01    1         1  ON     3
     ud_4                 2.111744e-01    1         1  ON     4
     ud_5                 1.375201e-01    1         1  ON     5
     ud_6                 8.172508e-02    1         1  ON     6
     ud_7                 3.943383e-02    1         1  ON     7
     ud_8                 1.103482e-02    1         1  ON     8
     ud_9                -4.534800e-03    1         1  ON     9


   Jastrow
   -------
    Name: J1   Type: One-Body   Function: Bspline

    Radial function for element: Si
     Number of parameters: 10
     Cusp: 0
     Cutoff radius: 10

      Name                        Value Type Recompute Use Index
     ----- ---------------------------- ---- --------- --- -----
     eSi_0                -4.947016e-01    1         1  ON     0
     eSi_1                -3.167784e-01    1         1  ON     1
     eSi_2                -1.984780e-01    1         1  ON     2
     eSi_3                -6.048241e-02    1         1  ON     3
     eSi_4                 4.232611e-02    1         1  ON     4
     eSi_5                 8.752570e-02    1         1  ON     5
     eSi_6                 9.902721e-02    1         1  ON     6
     eSi_7                 1.083820e-01    1         1  ON     7
     eSi_8                 8.854210e-02    1         1  ON     8
     eSi_9                 6.069942e-02    1         1  ON     9

    Radial function for element: H
     Number of parameters: 10
     Cusp: 0
     Cutoff radius: 10

     Name                        Value Type Recompute Use Index
     ---- ---------------------------- ---- --------- --- -----
     eH_0                -7.082390e-01    1         1  ON     0
     eH_1                -6.862334e-01    1         1  ON     1
     eH_2                -5.720780e-01    1         1  ON     2
     eH_3                -4.524236e-01    1         1  ON     3
     eH_4                -3.455838e-01    1         1  ON     4
     eH_5                -2.368360e-01    1         1  ON     5
     eH_6                -1.375724e-01    1         1  ON     6
     eH_7                -6.392646e-02    1         1  ON     7
     eH_8                 9.786081e-04    1         1  ON     8
     eH_9                 2.667111e-02    1         1  ON     9


   Jastrow
   -------
    Name: J3   Type: eeI   Function: polynomial

     Ion: Si   electron-electron: u - u
      Number of parameters for e-e: 3, for e-I: 3
      Cutoff radius: 10

Expected 26 parameters, but found 0 in PolynomialFunctor3D.
         Name                        Value Type Recompute Use Index
      ------- ---------------------------- ---- --------- --- -----
       uuSi_0                 0.000000e+00    1         1  ON     0
       uuSi_1                 0.000000e+00    1         1  ON     1
       uuSi_2                 0.000000e+00    1         1  ON     2
       uuSi_3                 0.000000e+00    1         1  ON     3
       uuSi_4                 0.000000e+00    1         1  ON     4
       uuSi_5                 0.000000e+00    1         1  ON     5
       uuSi_6                 0.000000e+00    1         1  ON     6
       uuSi_7                 0.000000e+00    1         1  ON     7
       uuSi_8                 0.000000e+00    1         1  ON     8
       uuSi_9                 0.000000e+00    1         1  ON     9
      uuSi_10                 0.000000e+00    1         1  ON    10
      uuSi_11                 0.000000e+00    1         1  ON    11
      uuSi_12                 0.000000e+00    1         1  ON    12
      uuSi_13                 0.000000e+00    1         1  ON    13
      uuSi_14                 0.000000e+00    1         1  ON    14
      uuSi_15                 0.000000e+00    1         1  ON    15
      uuSi_16                 0.000000e+00    1         1  ON    16
      uuSi_17                 0.000000e+00    1         1  ON    17
      uuSi_18                 0.000000e+00    1         1  ON    18
      uuSi_19                 0.000000e+00    1         1  ON    19
      uuSi_20                 0.000000e+00    1         1  ON    20
      uuSi_21                 0.000000e+00    1         1  ON    21
      uuSi_22                 0.000000e+00    1         1  ON    22
      uuSi_23                 0.000000e+00    1         1  ON    23
      uuSi_24                 0.000000e+00    1         1  ON    24
      uuSi_25                 0.000000e+00    1         1  ON    25

     Ion: Si   electron-electron: u - d
      Number of parameters for e-e: 3, for e-I: 3
      Cutoff radius: 10

Expected 26 parameters, but found 0 in PolynomialFunctor3D.
         Name                        Value Type Recompute Use Index
      ------- ---------------------------- ---- --------- --- -----
       udSi_0                 0.000000e+00    1         1  ON     0
       udSi_1                 0.000000e+00    1         1  ON     1
       udSi_2                 0.000000e+00    1         1  ON     2
       udSi_3                 0.000000e+00    1         1  ON     3
       udSi_4                 0.000000e+00    1         1  ON     4
       udSi_5                 0.000000e+00    1         1  ON     5
       udSi_6                 0.000000e+00    1         1  ON     6
       udSi_7                 0.000000e+00    1         1  ON     7
       udSi_8                 0.000000e+00    1         1  ON     8
       udSi_9                 0.000000e+00    1         1  ON     9
      udSi_10                 0.000000e+00    1         1  ON    10
      udSi_11                 0.000000e+00    1         1  ON    11
      udSi_12                 0.000000e+00    1         1  ON    12
      udSi_13                 0.000000e+00    1         1  ON    13
      udSi_14                 0.000000e+00    1         1  ON    14
      udSi_15                 0.000000e+00    1         1  ON    15
      udSi_16                 0.000000e+00    1         1  ON    16
      udSi_17                 0.000000e+00    1         1  ON    17
      udSi_18                 0.000000e+00    1         1  ON    18
      udSi_19                 0.000000e+00    1         1  ON    19
      udSi_20                 0.000000e+00    1         1  ON    20
      udSi_21                 0.000000e+00    1         1  ON    21
      udSi_22                 0.000000e+00    1         1  ON    22
      udSi_23                 0.000000e+00    1         1  ON    23
      udSi_24                 0.000000e+00    1         1  ON    24
      udSi_25                 0.000000e+00    1         1  ON    25

     Ion: H   electron-electron: u - u
      Number of parameters for e-e: 3, for e-I: 3
      Cutoff radius: 10

Expected 26 parameters, but found 0 in PolynomialFunctor3D.
        Name                        Value Type Recompute Use Index
      ------ ---------------------------- ---- --------- --- -----
       uuH_0                 0.000000e+00    1         1  ON     0
       uuH_1                 0.000000e+00    1         1  ON     1
       uuH_2                 0.000000e+00    1         1  ON     2
       uuH_3                 0.000000e+00    1         1  ON     3
       uuH_4                 0.000000e+00    1         1  ON     4
       uuH_5                 0.000000e+00    1         1  ON     5
       uuH_6                 0.000000e+00    1         1  ON     6
       uuH_7                 0.000000e+00    1         1  ON     7
       uuH_8                 0.000000e+00    1         1  ON     8
       uuH_9                 0.000000e+00    1         1  ON     9
      uuH_10                 0.000000e+00    1         1  ON    10
      uuH_11                 0.000000e+00    1         1  ON    11
      uuH_12                 0.000000e+00    1         1  ON    12
      uuH_13                 0.000000e+00    1         1  ON    13
      uuH_14                 0.000000e+00    1         1  ON    14
      uuH_15                 0.000000e+00    1         1  ON    15
      uuH_16                 0.000000e+00    1         1  ON    16
      uuH_17                 0.000000e+00    1         1  ON    17
      uuH_18                 0.000000e+00    1         1  ON    18
      uuH_19                 0.000000e+00    1         1  ON    19
      uuH_20                 0.000000e+00    1         1  ON    20
      uuH_21                 0.000000e+00    1         1  ON    21
      uuH_22                 0.000000e+00    1         1  ON    22
      uuH_23                 0.000000e+00    1         1  ON    23
      uuH_24                 0.000000e+00    1         1  ON    24
      uuH_25                 0.000000e+00    1         1  ON    25

     Ion: H   electron-electron: u - d
      Number of parameters for e-e: 3, for e-I: 3
      Cutoff radius: 10

Expected 26 parameters, but found 0 in PolynomialFunctor3D.
        Name                        Value Type Recompute Use Index
      ------ ---------------------------- ---- --------- --- -----
       udH_0                 0.000000e+00    1         1  ON     0
       udH_1                 0.000000e+00    1         1  ON     1
       udH_2                 0.000000e+00    1         1  ON     2
       udH_3                 0.000000e+00    1         1  ON     3
       udH_4                 0.000000e+00    1         1  ON     4
       udH_5                 0.000000e+00    1         1  ON     5
       udH_6                 0.000000e+00    1         1  ON     6
       udH_7                 0.000000e+00    1         1  ON     7
       udH_8                 0.000000e+00    1         1  ON     8
       udH_9                 0.000000e+00    1         1  ON     9
      udH_10                 0.000000e+00    1         1  ON    10
      udH_11                 0.000000e+00    1         1  ON    11
      udH_12                 0.000000e+00    1         1  ON    12
      udH_13                 0.000000e+00    1         1  ON    13
      udH_14                 0.000000e+00    1         1  ON    14
      udH_15                 0.000000e+00    1         1  ON    15
      udH_16                 0.000000e+00    1         1  ON    16
      udH_17                 0.000000e+00    1         1  ON    17
      udH_18                 0.000000e+00    1         1  ON    18
      udH_19                 0.000000e+00    1         1  ON    19
      udH_20                 0.000000e+00    1         1  ON    20
      udH_21                 0.000000e+00    1         1  ON    21
      udH_22                 0.000000e+00    1         1  ON    22
      udH_23                 0.000000e+00    1         1  ON    23
      udH_24                 0.000000e+00    1         1  ON    24
      udH_25                 0.000000e+00    1         1  ON    25

  QMCHamiltonian::addOperator Kinetic to H, physical Hamiltonian 
  QMCHamiltonian::addOperator ElecElec to H, physical Hamiltonian 
QMCHamiltonian::addOperatorType added type coulomb named ElecElec
  QMCHamiltonian::addOperator IonIon to H, physical Hamiltonian 
QMCHamiltonian::addOperatorType added type coulomb named IonIon

  ECPotential builder for pseudopotential 

  Adding pseudopotential for H
   Linear grid  ri=0 rf=10 npts = 10001
    ECPComponentBuilder::buildSemiLocalAndLocal 
    Assuming Hartree unit
   Number of angular momentum channels 2
   Maximum angular momentum channel 1
   Creating a Linear Grid Rmax=1e-10
  Using global grid with delta = 0.001
   Making L=1 a local potential with a radial cutoff of 9.999
    Non-local pseudopotential parameters
    Maximum angular mementum = 0
    Number of non-local channels = 1
       l(0)=0
    Cutoff radius = 0.001
    Spherical grids and weights: 
                        1                 0                 0       0.08333333333
                       -1   1.224646799e-16                 0       0.08333333333
             0.4472135955       0.894427191                 0       0.08333333333
            -0.4472135955      0.7236067977      0.5257311121       0.08333333333
             0.4472135955      0.2763932023      0.8506508084       0.08333333333
            -0.4472135955     -0.2763932023      0.8506508084       0.08333333333
             0.4472135955     -0.7236067977      0.5257311121       0.08333333333
            -0.4472135955      -0.894427191   1.095357397e-16       0.08333333333
             0.4472135955     -0.7236067977     -0.5257311121       0.08333333333
            -0.4472135955     -0.2763932023     -0.8506508084       0.08333333333
             0.4472135955      0.2763932023     -0.8506508084       0.08333333333
            -0.4472135955      0.7236067977     -0.5257311121       0.08333333333
    Maximum cutoff radius 0.001

  Adding pseudopotential for Si
   Linear grid  ri=0 rf=10 npts = 10001
    ECPComponentBuilder::buildSemiLocalAndLocal 
    Assuming Hartree unit
   Number of angular momentum channels 3
   Maximum angular momentum channel 2
   Creating a Linear Grid Rmax=2.69
  Using global grid with delta = 0.001
   Making L=2 a local potential with a radial cutoff of 9.999
    Non-local pseudopotential parameters
    Maximum angular mementum = 1
    Number of non-local channels = 2
       l(0)=0
       l(1)=1
    Cutoff radius = 2.69
    Spherical grids and weights: 
                        1                 0                 0       0.08333333333
                       -1   1.224646799e-16                 0       0.08333333333
             0.4472135955       0.894427191                 0       0.08333333333
            -0.4472135955      0.7236067977      0.5257311121       0.08333333333
             0.4472135955      0.2763932023      0.8506508084       0.08333333333
            -0.4472135955     -0.2763932023      0.8506508084       0.08333333333
             0.4472135955     -0.7236067977      0.5257311121       0.08333333333
            -0.4472135955      -0.894427191   1.095357397e-16       0.08333333333
             0.4472135955     -0.7236067977     -0.5257311121       0.08333333333
            -0.4472135955     -0.2763932023     -0.8506508084       0.08333333333
             0.4472135955      0.2763932023     -0.8506508084       0.08333333333
            -0.4472135955      0.7236067977     -0.5257311121       0.08333333333
    Maximum cutoff radius 2.69
  QMCHamiltonian::addOperator LocalECP to H, physical Hamiltonian 

  Using NonLocalECP potential 
    Maximum grid on a sphere for NonLocalECPotential: 12
  QMCHamiltonian::addOperator NonLocalECP to H, physical Hamiltonian 
QMCHamiltonian::addOperatorType added type pseudo named PseudoPot

  QMCHamiltonian::add2WalkerProperty added
    5 to P::PropertyList 
    0 to P::Collectables 
    starting Index of the observables in P::PropertyList = 9
ParticleSetPool::randomize 1 ParticleSet.
<init source="ion0" target="e">
</init>
  Initialization Execution time = 0.4244 secs
=========================================================
 Summary of QMC systems 
=========================================================
ParticleSetPool has: 

  ParticleSet 'e' contains 8 particles :  u(4) d(4)

    u  1.0292254038e-01  7.5937844170e-02 -1.1112786470e+00
    u  3.9735789786e-01  6.4980662938e-02  1.0436398091e+00
    u  1.6706193858e+00  2.5154489123e+00  2.2753376877e+00
    u -1.4917645782e+00  9.3146678805e-01 -7.3733077278e-01
    d  8.5643572809e-01  7.1267727241e-01  9.9542883973e-02
    d -7.9686430667e-01  4.7214469869e-01  6.2720530688e-01
    d -7.6202410570e-01 -9.4190762374e-01  1.8828250782e+00
    d  1.6439161595e+00 -8.7853634929e-01 -2.4564110281e+00

  Distance table for dissimilar particles (A-B):
    source: ion0  target: e
    Using structure-of-arrays (SoA) data layout
    Distance computations use open boundary conditions in 3D.

  Distance table for similar particles (A-A):
    source/target: e
    Using structure-of-arrays (SoA) data layout
    Distance computations use open boundary conditions in 3D.


  ParticleSet 'ion0' contains 5 particles :  Si(1) H(4)

    Si  0.0000000000e+00  0.0000000000e+00  0.0000000000e+00
    H  1.6145818839e+00  1.6145818839e+00  1.6145818839e+00
    H -1.6145818839e+00 -1.6145818839e+00  1.6145818839e+00
    H -1.6145818839e+00  1.6145818839e+00 -1.6145818839e+00
    H  1.6145818839e+00 -1.6145818839e+00 -1.6145818839e+00

  Distance table for similar particles (A-A):
    source/target: ion0
    Using structure-of-arrays (SoA) data layout
    Distance computations use open boundary conditions in 3D.


  Hamiltonian h0
  Kinetic         Kinetic energy
  ElecElec        CoulombAB source=e

  IonIon          CoulombAA source/target ion0

  LocalECP        LocalECPotential: ion0
  NonLocalECP     NonLocalECPotential: ion0

Loop execution max-interations = 3

=========================================================
  Start QMCFixedSampleLinearOptimize
  File Root qmc.dump.s000 append = no 
=========================================================
  Skip QMCDriver::putQMCInfo 
  Resetting Properties of the walkers 1 x 14
  Adding 21 walkers to 0 existing sets
  Total number of walkers: 1.3440000000e+03
  Total weight: 1.3440000000e+03

=========================================================
  Start VMC
  File Root qmc.dump.s000 append = no 
=========================================================
Resetting walkers
  Using the current 21 walkers.
  Total number of walkers: 1.3440000000e+03
  Total weight: 1.3440000000e+03
  Resetting Properties of the walkers 1 x 14

<vmc function="put">
  qmc_counter=0  my_counter=0
  time step      = 5.0000000000e-01
  blocks         = 20
  steps          = 38
  substeps       = 4
  current        = 0
  target samples = 1.0000000000e+06
  walkers/mpi    = 21

  stepsbetweensamples = 1
  SpinMoves      = no
<parameter name="blocks" condition="int">20</parameter>
<parameter name="blocks_between_recompute" condition="int">0</parameter>
<parameter name="check_properties" condition="int">100</parameter>
<parameter name="checkproperties" condition="int">100</parameter>
<parameter name="current" condition="int">0</parameter>
<parameter name="dmcwalkersperthread" condition="real">7.4500000000e+02</parameter>
<parameter name="maxcpusecs" condition="real">3.6000000000e+05</parameter>
<parameter name="record_configs" condition="int">0</parameter>
<parameter name="record_walkers" condition="int">1</parameter>
<parameter name="recordconfigs" condition="int">0</parameter>
<parameter name="recordwalkers" condition="int">1</parameter>
<parameter name="rewind" condition="int">0</parameter>
<parameter name="samples" condition="real">1.0000000000e+06</parameter>
<parameter name="samplesperthread" condition="real">7.4500000000e+02</parameter>
<parameter name="spinmass" condition="double">1.0000000000e+00</parameter>
<parameter name="spinmoves" condition="string">no</parameter>
<parameter name="steps" condition="int">38</parameter>
<parameter name="stepsbetweensamples" condition="int">1</parameter>
<parameter name="store_configs" condition="int">0</parameter>
<parameter name="storeconfigs" condition="int">0</parameter>
<parameter name="sub_steps" condition="int">4</parameter>
<parameter name="substeps" condition="int">4</parameter>
<parameter name="tau" condition="au">5.0000000000e-01</parameter>
<parameter name="time_step" condition="au">5.0000000000e-01</parameter>
<parameter name="timestep" condition="au">5.0000000000e-01</parameter>
<parameter name="use_drift" condition="string">no</parameter>
<parameter name="usedrift" condition="string">no</parameter>
<parameter name="walkers" condition="int">21</parameter>
<parameter name="warmup_steps" condition="int">100</parameter>
<parameter name="warmupsteps" condition="int">100</parameter>
  DumpConfig==false Nothing (configurations, state) will be saved.
  Walker Samples are dumped every 1 steps.
</vmc>
  Set drift_modifier UNR parameter a = 1.0000000000e+00
 Using QMCCostFunction::QMCCostFunction
  Set drift_modifier UNR parameter a = 1.0000000000e+00
<optimization-report>
<vmc stage="main" blocks="20">
  CloneManager::makeClones makes 21 clones for W/Psi/H.
  Cloning methods for both Psi and H are used
===== Memory Usage before cloning =====
Available memory on node 0, free + buffers : 563436 MB
Memory footprint by rank 0 on node 0       : 190 MB
==================================================
===== Memory Usage after cloning =====
Available memory on node 0, free + buffers : 563332 MB
Memory footprint by rank 0 on node 0       : 190 MB
==================================================
  Initial partition of walkers 0 1 2 3 4 5 6 7 8 9 10 11 12 13 14 15 16 17 18 19 20 21 

  Using Particle by Particle moves
  Walker moves without drift
  Total Sample Size   =1001280
  Walker distribution on root = 0 1 2 3 4 5 6 7 8 9 10 11 12 13 14 15 16 17 18 19 20 21 
  Using Locality Approximation
===== Memory Usage after the buffer registration =====
Available memory on node 0, free + buffers : 563317 MB
Memory footprint by rank 0 on node 0       : 256 MB
==================================================
  Anonymous Buffer size per walker : 384392 Bytes.
MEMORY increase 7 MB VMC::resetRun
====================================================
  SimpleFixedNodeBranch::finalize after a VMC block
    QMC counter        = 0
    time step          = 0.5
    reference energy   = -5.8959
    reference variance = 0.0641238
====================================================
  Execution time = 5.5940e+00
</vmc>
<opt stage="setup">
  <log>
   Reading configurations from h5FileRoot qmc.dump.s000
  QMCCostFunction is created with 21 threads.
  Using Nonlocal PP in Opt: no
   Number of samples loaded to each thread : 745 745 745 745 745 745 745 745 745 745 745 745 745 745 745 745 745 745 745 745 745 
  VMC Eavg = -5.9119e+00
  VMC Evar = 6.3806e-02
  Total weights = 1.0013e+06
  Execution time = 3.4806e+00
  </log>
</opt>
<opt stage="main" walkers="1001280">
  <log>

*****************************************
Building overlap and Hamiltonian matrices
*****************************************

Among totally 144 optimized parameters, largest LM parameter change : 4.8552e-02 at parameter 31

******************************************************************************
Init Cost =  -5.3143e+00    New Cost =  -5.3237e+00  Delta Cost =  -9.3129e-03
******************************************************************************

The new set of parameters is valid. Updating the trial wave function!

*****************************************************************************
Applying the update for shift_i =   1.0000e-02     and shift_s =   2.5000e-01
*****************************************************************************
  Execution time = 9.4272e+00
  </log>
  <optVariables href="qmc.dump.s000.opt.xml">
   uu_0                 6.295291e-01 1 1  ON 0
   uu_1                 4.433187e-01 1 1  ON 1
   uu_2                 3.022376e-01 1 1  ON 2
   uu_3                 1.966195e-01 1 1  ON 3
   uu_4                 1.267681e-01 1 1  ON 4
   uu_5                 7.740577e-02 1 1  ON 5
   uu_6                 4.002824e-02 1 1  ON 6
   uu_7                 1.395111e-02 1 1  ON 7
   uu_8                -2.424055e-03 1 1  ON 8
   uu_9                -8.166265e-03 1 1  ON 9
   ud_0                 1.067408e+00 1 1  ON 10
   ud_1                 7.171764e-01 1 1  ON 11
   ud_2                 4.807420e-01 1 1  ON 12
   ud_3                 3.177334e-01 1 1  ON 13
   ud_4                 2.144194e-01 1 1  ON 14
   ud_5                 1.446075e-01 1 1  ON 15
   ud_6                 9.067210e-02 1 1  ON 16
   ud_7                 4.778075e-02 1 1  ON 17
   ud_8                 1.704689e-02 1 1  ON 18
   ud_9                 1.223924e-03 1 1  ON 19
  eSi_0                -4.792142e-01 1 1  ON 20
  eSi_1                -3.225794e-01 1 1  ON 21
  eSi_2                -2.260263e-01 1 1  ON 22
  eSi_3                -8.688628e-02 1 1  ON 23
  eSi_4                 2.606450e-02 1 1  ON 24
  eSi_5                 9.102386e-02 1 1  ON 25
  eSi_6                 1.054257e-01 1 1  ON 26
  eSi_7                 1.112067e-01 1 1  ON 27
  eSi_8                 9.482486e-02 1 1  ON 28
  eSi_9                 6.383356e-02 1 1  ON 29
   eH_0                -7.431604e-01 1 1  ON 30
   eH_1                -7.347854e-01 1 1  ON 31
   eH_2                -5.952135e-01 1 1  ON 32
   eH_3                -4.543514e-01 1 1  ON 33
   eH_4                -3.413656e-01 1 1  ON 34
   eH_5                -2.523379e-01 1 1  ON 35
   eH_6                -1.644224e-01 1 1  ON 36
   eH_7                -8.033272e-02 1 1  ON 37
   eH_8                -1.712706e-02 1 1  ON 38
   eH_9                 2.018498e-02 1 1  ON 39
 uuSi_0                -1.984924e-05 1 1  ON 40
 uuSi_1                -3.210557e-05 1 1  ON 41
 uuSi_2                -2.225399e-05 1 1  ON 42
 uuSi_3                 4.851935e-05 1 1  ON 43
 uuSi_4                 1.163994e-05 1 1  ON 44
 uuSi_5                -1.031837e-06 1 1  ON 45
 uuSi_6                -2.874466e-05 1 1  ON 46
 uuSi_7                 1.356423e-05 1 1  ON 47
 uuSi_8                -5.199897e-05 1 1  ON 48
 uuSi_9                 4.398156e-05 1 1  ON 49
uuSi_10                 2.498009e-05 1 1  ON 50
uuSi_11                 1.915298e-05 1 1  ON 51
uuSi_12                 1.375145e-05 1 1  ON 52
uuSi_13                -7.251579e-05 1 1  ON 53
uuSi_14                -1.293681e-05 1 1  ON 54
uuSi_15                -5.894227e-08 1 1  ON 55
uuSi_16                -1.171569e-05 1 1  ON 56
uuSi_17                -5.833864e-05 1 1  ON 57
uuSi_18                -1.294795e-08 1 1  ON 58
uuSi_19                -4.319816e-06 1 1  ON 59
uuSi_20                 2.576769e-05 1 1  ON 60
uuSi_21                 1.634218e-06 1 1  ON 61
uuSi_22                 1.463467e-07 1 1  ON 62
uuSi_23                -5.871412e-06 1 1  ON 63
uuSi_24                 2.802726e-08 1 1  ON 64
uuSi_25                -1.769914e-08 1 1  ON 65
 udSi_0                -2.257116e-05 1 1  ON 66
 udSi_1                 3.640855e-05 1 1  ON 67
 udSi_2                 1.894781e-05 1 1  ON 68
 udSi_3                 5.022489e-05 1 1  ON 69
 udSi_4                 7.067612e-06 1 1  ON 70
 udSi_5                -6.518013e-06 1 1  ON 71
 udSi_6                 1.163231e-04 1 1  ON 72
 udSi_7                -1.207982e-05 1 1  ON 73
 udSi_8                -3.256352e-05 1 1  ON 74
 udSi_9                -7.481700e-05 1 1  ON 75
udSi_10                 2.384422e-05 1 1  ON 76
udSi_11                 6.228339e-06 1 1  ON 77
udSi_12                 1.213477e-05 1 1  ON 78
udSi_13                -5.186502e-05 1 1  ON 79
udSi_14                -1.392808e-05 1 1  ON 80
udSi_15                 1.234092e-07 1 1  ON 81
udSi_16                 1.222486e-04 1 1  ON 82
udSi_17                -7.103013e-05 1 1  ON 83
udSi_18                 3.675806e-06 1 1  ON 84
udSi_19                -4.696254e-06 1 1  ON 85
udSi_20                -4.710680e-06 1 1  ON 86
udSi_21                 3.633494e-06 1 1  ON 87
udSi_22                -9.649734e-09 1 1  ON 88
udSi_23                 1.813208e-06 1 1  ON 89
udSi_24                -7.918480e-07 1 1  ON 90
udSi_25                 6.755935e-08 1 1  ON 91
  uuH_0                -9.927728e-06 1 1  ON 92
  uuH_1                 4.339850e-06 1 1  ON 93
  uuH_2                 9.629911e-06 1 1  ON 94
  uuH_3                -2.439836e-06 1 1  ON 95
  uuH_4                -1.664094e-06 1 1  ON 96
  uuH_5                 5.749688e-07 1 1  ON 97
  uuH_6                 8.497922e-06 1 1  ON 98
  uuH_7                 5.566806e-06 1 1  ON 99
  uuH_8                 4.803837e-06 1 1  ON 100
  uuH_9                 5.443392e-06 1 1  ON 101
 uuH_10                -1.088363e-06 1 1  ON 102
 uuH_11                -2.960676e-06 1 1  ON 103
 uuH_12                -9.881064e-07 1 1  ON 104
 uuH_13                -5.004972e-06 1 1  ON 105
 uuH_14                 2.764892e-07 1 1  ON 106
 uuH_15                 5.238224e-08 1 1  ON 107
 uuH_16                -7.384585e-06 1 1  ON 108
 uuH_17                -2.681757e-06 1 1  ON 109
 uuH_18                 6.481568e-07 1 1  ON 110
 uuH_19                 3.026383e-07 1 1  ON 111
 uuH_20                 4.430408e-06 1 1  ON 112
 uuH_21                -1.237934e-07 1 1  ON 113
 uuH_22                -1.183341e-08 1 1  ON 114
 uuH_23                -1.220524e-06 1 1  ON 115
 uuH_24                 5.348157e-08 1 1  ON 116
 uuH_25                -6.162719e-09 1 1  ON 117
  udH_0                 1.648634e-06 1 1  ON 118
  udH_1                -8.650261e-06 1 1  ON 119
  udH_2                -5.666576e-06 1 1  ON 120
  udH_3                -5.222389e-06 1 1  ON 121
  udH_4                -8.445620e-08 1 1  ON 122
  udH_5                 4.358003e-06 1 1  ON 123
  udH_6                -1.673697e-05 1 1  ON 124
  udH_7                 1.554352e-07 1 1  ON 125
  udH_8                -2.738521e-06 1 1  ON 126
  udH_9                 1.413360e-05 1 1  ON 127
 udH_10                -2.695767e-06 1 1  ON 128
 udH_11                 3.694453e-06 1 1  ON 129
 udH_12                -2.854499e-07 1 1  ON 130
 udH_13                -2.899421e-06 1 1  ON 131
 udH_14                 1.778472e-07 1 1  ON 132
 udH_15                 2.882128e-09 1 1  ON 133
 udH_16                -1.380750e-06 1 1  ON 134
 udH_17                 5.682970e-07 1 1  ON 135
 udH_18                -2.783811e-06 1 1  ON 136
 udH_19                 5.554819e-07 1 1  ON 137
 udH_20                -4.268057e-07 1 1  ON 138
 udH_21                 4.003069e-07 1 1  ON 139
 udH_22                -7.251021e-08 1 1  ON 140
 udH_23                 9.751822e-07 1 1  ON 141
 udH_24                -2.000096e-07 1 1  ON 142
 udH_25                 2.429000e-08 1 1  ON 143
  </optVariables>
   Restore the number of walkers to 21, removing 0 walkers.
</opt>
</optimization-report>
  QMC Execution time = 9.43 secs

=========================================================
  Start QMCFixedSampleLinearOptimize
  File Root qmc.dump.s001 append = no 
=========================================================
  Skip QMCDriver::putQMCInfo 
  Resetting Properties of the walkers 1 x 14

=========================================================
  Start VMC
  File Root qmc.dump.s001 append = no 
=========================================================
Using existing walkers 
  Resetting Properties of the walkers 1 x 14

<vmc function="put">
  qmc_counter=1  my_counter=0
  time step      = 0.5
  blocks         = 20
  steps          = 38
  substeps       = 4
  current        = 0
  target samples = 1e+06
  walkers/mpi    = 21

  stepsbetweensamples = 1
  SpinMoves      = no
<parameter name="blocks" condition="int">20</parameter>
<parameter name="blocks_between_recompute" condition="int">0</parameter>
<parameter name="check_properties" condition="int">100</parameter>
<parameter name="checkproperties" condition="int">100</parameter>
<parameter name="current" condition="int">0</parameter>
<parameter name="dmcwalkersperthread" condition="real">745</parameter>
<parameter name="maxcpusecs" condition="real">3.6e+05</parameter>
<parameter name="record_configs" condition="int">0</parameter>
<parameter name="record_walkers" condition="int">1</parameter>
<parameter name="recordconfigs" condition="int">0</parameter>
<parameter name="recordwalkers" condition="int">1</parameter>
<parameter name="rewind" condition="int">0</parameter>
<parameter name="samples" condition="real">1e+06</parameter>
<parameter name="samplesperthread" condition="real">745</parameter>
<parameter name="spinmass" condition="double">1</parameter>
<parameter name="spinmoves" condition="string">no</parameter>
<parameter name="steps" condition="int">38</parameter>
<parameter name="stepsbetweensamples" condition="int">1</parameter>
<parameter name="store_configs" condition="int">0</parameter>
<parameter name="storeconfigs" condition="int">0</parameter>
<parameter name="sub_steps" condition="int">4</parameter>
<parameter name="substeps" condition="int">4</parameter>
<parameter name="tau" condition="au">0.5</parameter>
<parameter name="time_step" condition="au">0.5</parameter>
<parameter name="timestep" condition="au">0.5</parameter>
<parameter name="use_drift" condition="string">no</parameter>
<parameter name="usedrift" condition="string">no</parameter>
<parameter name="walkers" condition="int">1</parameter>
<parameter name="warmup_steps" condition="int">100</parameter>
<parameter name="warmupsteps" condition="int">100</parameter>
  DumpConfig==false Nothing (configurations, state) will be saved.
  Walker Samples are dumped every 1 steps.
</vmc>
    Restarting, cummulative properties:
      energy     = -5.896
      variance   = 0
      r2accepted = 1e-10
      r2proposed = 1e-10
  Set drift_modifier UNR parameter a = 1
 Using QMCCostFunction::QMCCostFunction
  Set drift_modifier UNR parameter a = 1.0000e+00
  EstimatorManagerBase::add replace LocalEnergy estimator.
<optimization-report>
<vmc stage="main" blocks="20">
  Cannot make clones again. Use existing 21 clones
  Initial partition of walkers 0 1 2 3 4 5 6 7 8 9 10 11 12 13 14 15 16 17 18 19 20 21 

  Using Particle by Particle moves
  Walker moves without drift
  Total Sample Size   =1001280
  Walker distribution on root = 0 1 2 3 4 5 6 7 8 9 10 11 12 13 14 15 16 17 18 19 20 21 
  Using Locality Approximation
===== Memory Usage after the buffer registration =====
Available memory on node 0, free + buffers : 563195 MB
Memory footprint by rank 0 on node 0       : 272 MB
==================================================
  Anonymous Buffer size per walker : 384392 Bytes.
MEMORY increase 7 MB VMC::resetRun
====================================================
  SimpleFixedNodeBranch::finalize after a VMC block
    QMC counter        = 1
    time step          = 0.5
    reference energy   = -5.92002
    reference variance = 0.0311194
====================================================
  Execution time = 5.5739e+00
</vmc>
<opt stage="setup">
  <log>
   Reading configurations from h5FileRoot qmc.dump.s001
  QMCCostFunction is created with 21 threads.
  Using Nonlocal PP in Opt: no
   Number of samples loaded to each thread : 745 745 745 745 745 745 745 745 745 745 745 745 745 745 745 745 745 745 745 745 745 
  VMC Eavg = -5.9195e+00
  VMC Evar = 4.2495e-02
  Total weights = 1.0013e+06
  Execution time = 3.4898e+00
  </log>
</opt>
<opt stage="main" walkers="1001280">
  <log>

*****************************************
Building overlap and Hamiltonian matrices
*****************************************

Among totally 144 optimized parameters, largest LM parameter change : 3.7758e-02 at parameter 30

******************************************************************************
Init Cost =  -5.3233e+00    New Cost =  -5.3243e+00  Delta Cost =  -1.0287e-03
******************************************************************************

The new set of parameters is valid. Updating the trial wave function!

*****************************************************************************
Applying the update for shift_i =   1.0000e-02     and shift_s =   6.2500e-02
*****************************************************************************
  Execution time = 9.4159e+00
  </log>
  <optVariables href="qmc.dump.s001.opt.xml">
   uu_0                 6.295958e-01 1 1  ON 0
   uu_1                 4.372854e-01 1 1  ON 1
   uu_2                 2.996302e-01 1 1  ON 2
   uu_3                 1.965695e-01 1 1  ON 3
   uu_4                 1.301763e-01 1 1  ON 4
   uu_5                 8.291169e-02 1 1  ON 5
   uu_6                 4.605303e-02 1 1  ON 6
   uu_7                 2.018252e-02 1 1  ON 7
   uu_8                 2.490793e-03 1 1  ON 8
   uu_9                -4.652242e-03 1 1  ON 9
   ud_0                 1.058258e+00 1 1  ON 10
   ud_1                 7.116033e-01 1 1  ON 11
   ud_2                 4.819907e-01 1 1  ON 12
   ud_3                 3.217662e-01 1 1  ON 13
   ud_4                 2.192811e-01 1 1  ON 14
   ud_5                 1.498889e-01 1 1  ON 15
   ud_6                 9.615716e-02 1 1  ON 16
   ud_7                 5.340946e-02 1 1  ON 17
   ud_8                 2.206978e-02 1 1  ON 18
   ud_9                 5.384183e-03 1 1  ON 19
  eSi_0                -4.654801e-01 1 1  ON 20
  eSi_1                -3.351572e-01 1 1  ON 21
  eSi_2                -2.496416e-01 1 1  ON 22
  eSi_3                -1.080279e-01 1 1  ON 23
  eSi_4                 1.293739e-02 1 1  ON 24
  eSi_5                 9.227137e-02 1 1  ON 25
  eSi_6                 1.119877e-01 1 1  ON 26
  eSi_7                 1.150634e-01 1 1  ON 27
  eSi_8                 1.000746e-01 1 1  ON 28
  eSi_9                 6.673433e-02 1 1  ON 29
   eH_0                -7.809185e-01 1 1  ON 30
   eH_1                -7.717456e-01 1 1  ON 31
   eH_2                -6.178021e-01 1 1  ON 32
   eH_3                -4.610481e-01 1 1  ON 33
   eH_4                -3.448158e-01 1 1  ON 34
   eH_5                -2.662871e-01 1 1  ON 35
   eH_6                -1.862089e-01 1 1  ON 36
   eH_7                -9.872849e-02 1 1  ON 37
   eH_8                -3.160124e-02 1 1  ON 38
   eH_9                 1.347633e-02 1 1  ON 39
 uuSi_0                -2.624252e-05 1 1  ON 40
 uuSi_1                -3.338701e-05 1 1  ON 41
 uuSi_2                -2.762383e-05 1 1  ON 42
 uuSi_3                 6.286203e-05 1 1  ON 43
 uuSi_4                 1.490907e-05 1 1  ON 44
 uuSi_5                -1.910533e-06 1 1  ON 45
 uuSi_6                -2.259206e-05 1 1  ON 46
 uuSi_7                 9.994403e-06 1 1  ON 47
 uuSi_8                -6.930817e-05 1 1  ON 48
 uuSi_9                 4.888012e-05 1 1  ON 49
uuSi_10                 3.119234e-05 1 1  ON 50
uuSi_11                 2.942915e-05 1 1  ON 51
uuSi_12                 1.810877e-05 1 1  ON 52
uuSi_13                -9.453053e-05 1 1  ON 53
uuSi_14                -1.772410e-05 1 1  ON 54
uuSi_15                -2.356632e-08 1 1  ON 55
uuSi_16                -9.828359e-06 1 1  ON 56
uuSi_17                -7.639866e-05 1 1  ON 57
uuSi_18                -3.484674e-06 1 1  ON 58
uuSi_19                -5.351577e-06 1 1  ON 59
uuSi_20                 3.388870e-05 1 1  ON 60
uuSi_21                 2.769349e-06 1 1  ON 61
uuSi_22                 1.056714e-07 1 1  ON 62
uuSi_23                -7.949967e-06 1 1  ON 63
uuSi_24                -6.656338e-08 1 1  ON 64
uuSi_25                -4.973236e-09 1 1  ON 65
 udSi_0                -3.304074e-05 1 1  ON 66
 udSi_1                 4.387758e-05 1 1  ON 67
 udSi_2                 2.801246e-05 1 1  ON 68
 udSi_3                 6.891760e-05 1 1  ON 69
 udSi_4                 8.907660e-06 1 1  ON 70
 udSi_5                -8.186432e-06 1 1  ON 71
 udSi_6                 1.542971e-04 1 1  ON 72
 udSi_7                -9.507375e-06 1 1  ON 73
 udSi_8                -4.311652e-05 1 1  ON 74
 udSi_9                -9.991646e-05 1 1  ON 75
udSi_10                 3.237186e-05 1 1  ON 76
udSi_11                 5.995745e-06 1 1  ON 77
udSi_12                 1.641934e-05 1 1  ON 78
udSi_13                -7.273984e-05 1 1  ON 79
udSi_14                -1.894874e-05 1 1  ON 80
udSi_15                 1.792967e-07 1 1  ON 81
udSi_16                 1.671562e-04 1 1  ON 82
udSi_17                -9.887552e-05 1 1  ON 83
udSi_18                 5.893270e-06 1 1  ON 84
udSi_19                -6.451586e-06 1 1  ON 85
udSi_20                -5.430355e-06 1 1  ON 86
udSi_21                 5.033613e-06 1 1  ON 87
udSi_22                -2.870176e-08 1 1  ON 88
udSi_23                 1.989250e-06 1 1  ON 89
udSi_24                -1.105559e-06 1 1  ON 90
udSi_25                 9.900928e-08 1 1  ON 91
  uuH_0                -1.009505e-05 1 1  ON 92
  uuH_1                 1.020746e-05 1 1  ON 93
  uuH_2                 1.082163e-05 1 1  ON 94
  uuH_3                -4.790482e-06 1 1  ON 95
  uuH_4                -2.103171e-06 1 1  ON 96
  uuH_5                 5.044379e-07 1 1  ON 97
  uuH_6                 1.520191e-05 1 1  ON 98
  uuH_7                 2.345939e-06 1 1  ON 99
  uuH_8                 5.312009e-06 1 1  ON 100
  uuH_9                 2.808359e-06 1 1  ON 101
 uuH_10                -2.541004e-06 1 1  ON 102
 uuH_11                -1.334126e-06 1 1  ON 103
 uuH_12                -1.280332e-06 1 1  ON 104
 uuH_13                -3.929917e-06 1 1  ON 105
 uuH_14                 2.697864e-07 1 1  ON 106
 uuH_15                 7.404561e-08 1 1  ON 107
 uuH_16                -6.413848e-06 1 1  ON 108
 uuH_17                -1.476418e-06 1 1  ON 109
 uuH_18                -7.778282e-07 1 1  ON 110
 uuH_19                 5.322327e-07 1 1  ON 111
 uuH_20                 4.390546e-06 1 1  ON 112
 uuH_21                 2.852025e-08 1 1  ON 113
 uuH_22                -3.951705e-08 1 1  ON 114
 uuH_23                -1.228602e-06 1 1  ON 115
 uuH_24                 3.282369e-08 1 1  ON 116
 uuH_25                -3.017784e-09 1 1  ON 117
  udH_0                 2.237894e-06 1 1  ON 118
  udH_1                -8.860325e-06 1 1  ON 119
  udH_2                -7.608796e-06 1 1  ON 120
  udH_3                -5.687246e-06 1 1  ON 121
  udH_4                 8.126470e-08 1 1  ON 122
  udH_5                 7.065274e-06 1 1  ON 123
  udH_6                -1.788230e-05 1 1  ON 124
  udH_7                -1.324364e-06 1 1  ON 125
  udH_8                -4.176091e-06 1 1  ON 126
  udH_9                 1.524339e-05 1 1  ON 127
 udH_10                -3.209284e-06 1 1  ON 128
 udH_11                 5.254346e-06 1 1  ON 129
 udH_12                -2.281324e-07 1 1  ON 130
 udH_13                -3.914403e-06 1 1  ON 131
 udH_14                 3.717662e-08 1 1  ON 132
 udH_15                 1.130594e-08 1 1  ON 133
 udH_16                 1.867743e-06 1 1  ON 134
 udH_17                 7.273021e-08 1 1  ON 135
 udH_18                -3.592929e-06 1 1  ON 136
 udH_19                 6.887014e-07 1 1  ON 137
 udH_20                -1.185554e-06 1 1  ON 138
 udH_21                 5.401865e-07 1 1  ON 139
 udH_22                -9.519265e-08 1 1  ON 140
 udH_23                 1.507205e-06 1 1  ON 141
 udH_24                -2.681782e-07 1 1  ON 142
 udH_25                 3.210097e-08 1 1  ON 143
  </optVariables>
   Restore the number of walkers to 21, removing 0 walkers.
</opt>
</optimization-report>
  QMC Execution time = 9.419 secs

=========================================================
  Start QMCFixedSampleLinearOptimize
  File Root qmc.dump.s002 append = no 
=========================================================
  Skip QMCDriver::putQMCInfo 
  Resetting Properties of the walkers 1 x 14

=========================================================
  Start VMC
  File Root qmc.dump.s002 append = no 
=========================================================
Using existing walkers 
  Resetting Properties of the walkers 1 x 14

<vmc function="put">
  qmc_counter=2  my_counter=0
  time step      = 0.5
  blocks         = 20
  steps          = 38
  substeps       = 4
  current        = 0
  target samples = 1e+06
  walkers/mpi    = 21

  stepsbetweensamples = 1
  SpinMoves      = no
<parameter name="blocks" condition="int">20</parameter>
<parameter name="blocks_between_recompute" condition="int">0</parameter>
<parameter name="check_properties" condition="int">100</parameter>
<parameter name="checkproperties" condition="int">100</parameter>
<parameter name="current" condition="int">0</parameter>
<parameter name="dmcwalkersperthread" condition="real">745</parameter>
<parameter name="maxcpusecs" condition="real">3.6e+05</parameter>
<parameter name="record_configs" condition="int">0</parameter>
<parameter name="record_walkers" condition="int">1</parameter>
<parameter name="recordconfigs" condition="int">0</parameter>
<parameter name="recordwalkers" condition="int">1</parameter>
<parameter name="rewind" condition="int">0</parameter>
<parameter name="samples" condition="real">1e+06</parameter>
<parameter name="samplesperthread" condition="real">745</parameter>
<parameter name="spinmass" condition="double">1</parameter>
<parameter name="spinmoves" condition="string">no</parameter>
<parameter name="steps" condition="int">38</parameter>
<parameter name="stepsbetweensamples" condition="int">1</parameter>
<parameter name="store_configs" condition="int">0</parameter>
<parameter name="storeconfigs" condition="int">0</parameter>
<parameter name="sub_steps" condition="int">4</parameter>
<parameter name="substeps" condition="int">4</parameter>
<parameter name="tau" condition="au">0.5</parameter>
<parameter name="time_step" condition="au">0.5</parameter>
<parameter name="timestep" condition="au">0.5</parameter>
<parameter name="use_drift" condition="string">no</parameter>
<parameter name="usedrift" condition="string">no</parameter>
<parameter name="walkers" condition="int">1</parameter>
<parameter name="warmup_steps" condition="int">100</parameter>
<parameter name="warmupsteps" condition="int">100</parameter>
  DumpConfig==false Nothing (configurations, state) will be saved.
  Walker Samples are dumped every 1 steps.
</vmc>
    Restarting, cummulative properties:
      energy     = -5.908
      variance   = 0
      r2accepted = 1e-10
      r2proposed = 1e-10
  Set drift_modifier UNR parameter a = 1
 Using QMCCostFunction::QMCCostFunction
  Set drift_modifier UNR parameter a = 1.0000e+00
  EstimatorManagerBase::add replace LocalEnergy estimator.
<optimization-report>
<vmc stage="main" blocks="20">
  Cannot make clones again. Use existing 21 clones
  Initial partition of walkers 0 1 2 3 4 5 6 7 8 9 10 11 12 13 14 15 16 17 18 19 20 21 

  Using Particle by Particle moves
  Walker moves without drift
  Total Sample Size   =1001280
  Walker distribution on root = 0 1 2 3 4 5 6 7 8 9 10 11 12 13 14 15 16 17 18 19 20 21 
  Using Locality Approximation
===== Memory Usage after the buffer registration =====
Available memory on node 0, free + buffers : 563191 MB
Memory footprint by rank 0 on node 0       : 272 MB
==================================================
  Anonymous Buffer size per walker : 384392 Bytes.
MEMORY increase 7 MB VMC::resetRun
====================================================
  SimpleFixedNodeBranch::finalize after a VMC block
    QMC counter        = 2
    time step          = 0.5
    reference energy   = -5.92086
    reference variance = 0.0428835
====================================================
  Execution time = 5.6142e+00
</vmc>
<opt stage="setup">
  <log>
   Reading configurations from h5FileRoot qmc.dump.s002
  QMCCostFunction is created with 21 threads.
  Using Nonlocal PP in Opt: no
   Number of samples loaded to each thread : 745 745 745 745 745 745 745 745 745 745 745 745 745 745 745 745 745 745 745 745 745 
  VMC Eavg = -5.9211e+00
  VMC Evar = 4.5005e-02
  Total weights = 1.0013e+06
  Execution time = 3.4916e+00
  </log>
</opt>
<opt stage="main" walkers="1001280">
  <log>

*****************************************
Building overlap and Hamiltonian matrices
*****************************************

Among totally 144 optimized parameters, largest LM parameter change : 2.8683e-02 at parameter 30

******************************************************************************
Init Cost =  -5.3245e+00    New Cost =  -5.3246e+00  Delta Cost =  -1.3613e-04
******************************************************************************

The new set of parameters is valid. Updating the trial wave function!

*****************************************************************************
Applying the update for shift_i =   1.0000e-02     and shift_s =   1.5625e-02
*****************************************************************************
  Execution time = 9.4603e+00
  </log>
  <optVariables href="qmc.dump.s002.opt.xml">
   uu_0                 6.284226e-01 1 1  ON 0
   uu_1                 4.340663e-01 1 1  ON 1
   uu_2                 3.011587e-01 1 1  ON 2
   uu_3                 2.007643e-01 1 1  ON 3
   uu_4                 1.356712e-01 1 1  ON 4
   uu_5                 8.825627e-02 1 1  ON 5
   uu_6                 5.100364e-02 1 1  ON 6
   uu_7                 2.493715e-02 1 1  ON 7
   uu_8                 6.096584e-03 1 1  ON 8
   uu_9                -2.410292e-03 1 1  ON 9
   ud_0                 1.052341e+00 1 1  ON 10
   ud_1                 7.085229e-01 1 1  ON 11
   ud_2                 4.828486e-01 1 1  ON 12
   ud_3                 3.249055e-01 1 1  ON 13
   ud_4                 2.236093e-01 1 1  ON 14
   ud_5                 1.540486e-01 1 1  ON 15
   ud_6                 9.994856e-02 1 1  ON 16
   ud_7                 5.694723e-02 1 1  ON 17
   ud_8                 2.524473e-02 1 1  ON 18
   ud_9                 7.544382e-03 1 1  ON 19
  eSi_0                -4.543843e-01 1 1  ON 20
  eSi_1                -3.471691e-01 1 1  ON 21
  eSi_2                -2.709065e-01 1 1  ON 22
  eSi_3                -1.245887e-01 1 1  ON 23
  eSi_4                 3.541810e-03 1 1  ON 24
  eSi_5                 9.506890e-02 1 1  ON 25
  eSi_6                 1.159081e-01 1 1  ON 26
  eSi_7                 1.167320e-01 1 1  ON 27
  eSi_8                 1.022316e-01 1 1  ON 28
  eSi_9                 6.824326e-02 1 1  ON 29
   eH_0                -8.096016e-01 1 1  ON 30
   eH_1                -7.973723e-01 1 1  ON 31
   eH_2                -6.383892e-01 1 1  ON 32
   eH_3                -4.754631e-01 1 1  ON 33
   eH_4                -3.551970e-01 1 1  ON 34
   eH_5                -2.782251e-01 1 1  ON 35
   eH_6                -2.006664e-01 1 1  ON 36
   eH_7                -1.131134e-01 1 1  ON 37
   eH_8                -4.400929e-02 1 1  ON 38
   eH_9                 4.469178e-03 1 1  ON 39
 uuSi_0                -2.717660e-05 1 1  ON 40
 uuSi_1                -2.328200e-05 1 1  ON 41
 uuSi_2                -2.462048e-05 1 1  ON 42
 uuSi_3                 6.631490e-05 1 1  ON 43
 uuSi_4                 1.542602e-05 1 1  ON 44
 uuSi_5                -2.613958e-06 1 1  ON 45
 uuSi_6                -7.945708e-07 1 1  ON 46
 uuSi_7                 4.299904e-06 1 1  ON 47
 uuSi_8                -7.229178e-05 1 1  ON 48
 uuSi_9                 3.351597e-05 1 1  ON 49
uuSi_10                 3.248799e-05 1 1  ON 50
uuSi_11                 3.101084e-05 1 1  ON 51
uuSi_12                 1.933437e-05 1 1  ON 52
uuSi_13                -9.844288e-05 1 1  ON 53
uuSi_14                -1.942813e-05 1 1  ON 54
uuSi_15                 1.062354e-08 1 1  ON 55
uuSi_16                 8.409310e-06 1 1  ON 56
uuSi_17                -8.422883e-05 1 1  ON 57
uuSi_18                -3.479925e-06 1 1  ON 58
uuSi_19                -5.838492e-06 1 1  ON 59
uuSi_20                 3.323817e-05 1 1  ON 60
uuSi_21                 3.238645e-06 1 1  ON 61
uuSi_22                 9.699742e-08 1 1  ON 62
uuSi_23                -8.027449e-06 1 1  ON 63
uuSi_24                -1.432000e-07 1 1  ON 64
uuSi_25                 1.852595e-09 1 1  ON 65
 udSi_0                -3.547490e-05 1 1  ON 66
 udSi_1                 3.956504e-05 1 1  ON 67
 udSi_2                 3.060042e-05 1 1  ON 68
 udSi_3                 7.779982e-05 1 1  ON 69
 udSi_4                 9.951030e-06 1 1  ON 70
 udSi_5                -7.514498e-06 1 1  ON 71
 udSi_6                 1.573570e-04 1 1  ON 72
 udSi_7                 3.298741e-07 1 1  ON 73
 udSi_8                -4.610576e-05 1 1  ON 74
 udSi_9                -1.067640e-04 1 1  ON 75
udSi_10                 3.749677e-05 1 1  ON 76
udSi_11                 1.013597e-06 1 1  ON 77
udSi_12                 1.819139e-05 1 1  ON 78
udSi_13                -8.179046e-05 1 1  ON 79
udSi_14                -2.033188e-05 1 1  ON 80
udSi_15                 1.452848e-07 1 1  ON 81
udSi_16                 1.836476e-04 1 1  ON 82
udSi_17                -1.108825e-04 1 1  ON 83
udSi_18                 9.654896e-06 1 1  ON 84
udSi_19                -7.455336e-06 1 1  ON 85
udSi_20                -5.234993e-06 1 1  ON 86
udSi_21                 5.175461e-06 1 1  ON 87
udSi_22                 2.822564e-08 1 1  ON 88
udSi_23                 1.881469e-06 1 1  ON 89
udSi_24                -1.163118e-06 1 1  ON 90
udSi_25                 9.921841e-08 1 1  ON 91
  uuH_0                -1.097100e-05 1 1  ON 92
  uuH_1                 1.663204e-05 1 1  ON 93
  uuH_2                 1.047106e-05 1 1  ON 94
  uuH_3                -7.825078e-06 1 1  ON 95
  uuH_4                -2.701793e-06 1 1  ON 96
  uuH_5                 2.288028e-07 1 1  ON 97
  uuH_6                 2.391988e-05 1 1  ON 98
  uuH_7                -5.254095e-06 1 1  ON 99
  uuH_8                 4.790852e-06 1 1  ON 100
  uuH_9                 7.547785e-07 1 1  ON 101
 uuH_10                -5.608240e-06 1 1  ON 102
 uuH_11                 3.924092e-06 1 1  ON 103
 uuH_12                -1.748022e-06 1 1  ON 104
 uuH_13                -1.284110e-06 1 1  ON 105
 uuH_14                 1.744723e-07 1 1  ON 106
 uuH_15                 1.179625e-07 1 1  ON 107
 uuH_16                -7.997385e-06 1 1  ON 108
 uuH_17                 2.514846e-06 1 1  ON 109
 uuH_18                -4.454904e-06 1 1  ON 110
 uuH_19                 1.058041e-06 1 1  ON 111
 uuH_20                 4.250318e-06 1 1  ON 112
 uuH_21                 3.426622e-07 1 1  ON 113
 uuH_22                -1.034795e-07 1 1  ON 114
 uuH_23                -1.251022e-06 1 1  ON 115
 uuH_24                 3.364043e-09 1 1  ON 116
 uuH_25                 4.431404e-09 1 1  ON 117
  udH_0                 2.886231e-06 1 1  ON 118
  udH_1                -8.259564e-06 1 1  ON 119
  udH_2                -8.799671e-06 1 1  ON 120
  udH_3                -6.172251e-06 1 1  ON 121
  udH_4                 8.236271e-08 1 1  ON 122
  udH_5                 7.920653e-06 1 1  ON 123
  udH_6                -1.811011e-05 1 1  ON 124
  udH_7                -3.106071e-06 1 1  ON 125
  udH_8                -4.764873e-06 1 1  ON 126
  udH_9                 1.510198e-05 1 1  ON 127
 udH_10                -3.837296e-06 1 1  ON 128
 udH_11                 6.658166e-06 1 1  ON 129
 udH_12                -2.840544e-07 1 1  ON 130
 udH_13                -2.903183e-06 1 1  ON 131
 udH_14                 8.430313e-09 1 1  ON 132
 udH_15                 2.095510e-08 1 1  ON 133
 udH_16                 2.769878e-06 1 1  ON 134
 udH_17                 1.173490e-06 1 1  ON 135
 udH_18                -4.467399e-06 1 1  ON 136
 udH_19                 8.158859e-07 1 1  ON 137
 udH_20                -2.022698e-06 1 1  ON 138
 udH_21                 6.429498e-07 1 1  ON 139
 udH_22                -1.147123e-07 1 1  ON 140
 udH_23                 1.870849e-06 1 1  ON 141
 udH_24                -3.057944e-07 1 1  ON 142
 udH_25                 3.765546e-08 1 1  ON 143
  </optVariables>
   Restore the number of walkers to 21, removing 0 walkers.
</opt>
</optimization-report>
  QMC Execution time = 9.463 secs
BRANCH resetRun
  Continue with the same input as the previous block.
 SimpleFixedNodeBranch::resetRun detected changes in <parameter>'s 
 BranchMode : 0000001100 0000001100
 iParam (old):                100                 1                 2                 0                 0                 0                 1                 0
 iParam (new):                100                 1                 2                 0                 0                 0                 1                 0
 vParam (old):                0.5               0.1                 1                 1                 1                 1                 1                 1                 1                 0                 0                 1                10                 1                 1                 1                 1
 vParam (new):                0.5               0.1                 1                 1                 1                 1                 1                 1                 1                 0                 0                 1                10                 1                 1                 1                 1

=========================================================
  Start VMC
  File Root qmc.dump.s003 append = no 
=========================================================
Resetting walkers
  Using the current 21 walkers.
  Total number of walkers: 1344
  Total weight: 1344
  Resetting Properties of the walkers 1 x 14

<vmc function="put">
  qmc_counter=0  my_counter=0
  time step      = 0.5
  blocks         = 400
  steps          = 1
  substeps       = 50
  current        = 0
  target samples = 2520
  walkers/mpi    = 21

  stepsbetweensamples = 200
  SpinMoves      = no
<parameter name="blocks" condition="int">400</parameter>
<parameter name="blocks_between_recompute" condition="int">0</parameter>
<parameter name="check_properties" condition="int">100</parameter>
<parameter name="checkproperties" condition="int">100</parameter>
<parameter name="current" condition="int">0</parameter>
<parameter name="dmcwalkersperthread" condition="real">2</parameter>
<parameter name="maxcpusecs" condition="real">360000</parameter>
<parameter name="record_configs" condition="int">0</parameter>
<parameter name="record_walkers" condition="int">200</parameter>
<parameter name="recordconfigs" condition="int">0</parameter>
<parameter name="recordwalkers" condition="int">200</parameter>
<parameter name="rewind" condition="int">0</parameter>
<parameter name="samples" condition="real">2520</parameter>
<parameter name="samplesperthread" condition="real">2</parameter>
<parameter name="spinmass" condition="double">1</parameter>
<parameter name="spinmoves" condition="string">no</parameter>
<parameter name="steps" condition="int">1</parameter>
<parameter name="stepsbetweensamples" condition="int">200</parameter>
<parameter name="store_configs" condition="int">0</parameter>
<parameter name="storeconfigs" condition="int">0</parameter>
<parameter name="sub_steps" condition="int">50</parameter>
<parameter name="substeps" condition="int">50</parameter>
<parameter name="tau" condition="au">0.5</parameter>
<parameter name="time_step" condition="au">0.5</parameter>
<parameter name="timestep" condition="au">0.5</parameter>
<parameter name="use_drift" condition="string">no</parameter>
<parameter name="usedrift" condition="string">no</parameter>
<parameter name="walkers" condition="int">21</parameter>
<parameter name="warmup_steps" condition="int">100</parameter>
<parameter name="warmupsteps" condition="int">100</parameter>
  DumpConfig==true Configurations are dumped to config.h5 with a period of 400 blocks
  Walker Samples are dumped every 200 steps.
</vmc>
  Set drift_modifier UNR parameter a = 1
  EstimatorManagerBase::add replace LocalEnergy estimator.
  Cannot make clones again. Use existing 21 clones
  Initial partition of walkers 0 1 2 3 4 5 6 7 8 9 10 11 12 13 14 15 16 17 18 19 20 21 

  Using Particle by Particle moves
  Walker moves without drift
  Total Sample Size   =2688
  Walker distribution on root = 0 1 2 3 4 5 6 7 8 9 10 11 12 13 14 15 16 17 18 19 20 21 
  Using Locality Approximation
===== Memory Usage after the buffer registration =====
Available memory on node 0, free + buffers : 563191 MB
Memory footprint by rank 0 on node 0       : 272 MB
==================================================
  Anonymous Buffer size per walker : 384392 Bytes.
MEMORY increase 7 MB VMC::resetRun
  samples are written to the config.h5
====================================================
  SimpleFixedNodeBranch::finalize after a VMC block
    QMC counter        = 3
    time step          = 0.5
    reference energy   = -5.91727
    reference variance = 0.0433357
====================================================
  QMC Execution time = 15.92 secs
BRANCH resetRun
 SimpleFixedNodeBranch::resetRun detected changes in <parameter>'s 
 BranchMode : 0000001100 0000001100
 iParam (old):                100                 1                 3              2520                 0                 0                 1                 0
 iParam (new):                500                 1                 3              2520                 0                 0                 1                 0
 vParam (old):                0.5               0.1      -5.917274199      -5.917274199                 1                 1                 1                 1     0.04333573934      -5.917274199                 1                 1                10                 1                 1                 1                 1
 vParam (new):              0.001               0.1      -5.917274199      -5.917274199                 1                 1                 1                 1     0.04333573934      -5.917274199                 1                 1                10                 1                 1                 1                 1

=========================================================
  Start DMC
  File Root qmc.dump.s004 append = no 
=========================================================
Using existing walkers 
  Resetting Properties of the walkers 1 x 14
  Set drift_modifier UNR parameter a = 1
  EstimatorManagerBase::add replace LocalEnergy estimator.
  Cannot make clones again. Use existing 21 clones
  Total number of walkers: 2688
  Total weight: 2688
  Creating WalkerController: target  number of walkers = 2520
  Using WalkerControlMPI for dynamic population control.
  START ALL OVER 
  WalkerControlBase parameters 
    maxCopy = 2
    Max Walkers per MPI rank 79
    Min Walkers per MPI rank 8
    Using non-blocking send/recv
  QMC counter      = 4
  time step        = 0.001
  effective time step = 0.001
  trial energy     = -5.917274199
  reference energy = -5.917274199
  Feedback = 1
  reference variance = 0.04333573934
  target walkers = 2520
  branching cutoff scheme classic
  branch cutoff = 50 75
  Max and minimum walkers per node= 79 8
  QMC Status (BranchMode) = 0000001101
  Initial partition of walkers on a node: 0 2 4 6 8 10 12 14 16 18 20 22 24 26 28 30 32 34 36 38 40 42 
  Updates by particle-by-particle moves
  DMC moves are rejected when a node crossing is detected
  Using Non-local T-moves v1, M. Casula et al., JCP 132, 154113 (2010)
===== Memory Usage after the buffer registration =====
Available memory on node 0, free + buffers : 563175 MB
Memory footprint by rank 0 on node 0       : 282 MB
==================================================
SimpleFixedNodeBranch::checkParameters 
  Average Energy of a population  = -5.91769
  Energy Variance = 0.0398031

  Fluctuating population
  Persistent walkers are killed after 1 MC sweeps
  BranchInterval = 1
  Steps per block = 1000
  Number of blocks = 1000

  DMC Engine Initialization = 0.01744231209 secs

 Warmup is completed after 500

  TauEff     = 0.0009999372727
 TauEff/Tau = 0.9999372727
  Etrial     = -5.925727845
 Running average of energy = -5.919340214
                  Variance = 0.04974874483
branch cutoff = 10 15
