  Input file(s): qmc.dump.qmc.in-wfj.xml 

=====================================================
                    QMCPACK 3.9.9

       (c) Copyright 2003-  QMCPACK developers

                    Please cite:
 J. Kim et al. J. Phys. Cond. Mat. 30 195901 (2018)
      https://doi.org/10.1088/1361-648X/aab9c3

  Git branch: develop
  Last git commit: 51afccc38c709a720e0a3b2699c25cdc16ac35ad
  Last git commit date: Thu Jun 11 17:49:55 2020 -0400
  Last git commit subject: Merge pull request #2531 from mmorale3/add_afqmc_hip
=====================================================
  Global options 

  Total number of MPI ranks = 64
  Number of MPI groups      = 1
  MPI group ID              = 0
  Number of ranks in group  = 64
  MPI ranks per node        = 2
  OMP 1st level threads     = 21
  OMP nested threading disabled or only 1 thread on the 2nd level

  Precision used in this calculation, see definitions in the manual:
  Base precision      = double
  Full precision      = double

  Structure-of-arrays (SoA) optimization enabled

  Input XML = qmc.dump.qmc.in-wfj.xml

  Project = qmc.dump
  date    = 2020-07-15 11:34:30 EDT
  host    = f18n13

 Random Number
 -------------
  Offset for the random number seeds based on time: 518

  Range of prime numbers to use as seeds over processors and threads = 3727-16007


 Particle Set 
 ------------
  Name: ion0
  All the species have the same mass 1
  Particle set size: 5

 Particle Set 
 ------------
  Name: e
  All the species have the same mass 1
  Particle set size: 8

 Wavefunction setup: 
 ------------------- 
  Name: psi0
  LCAO: SoaAtomicBasisSet<MultiQuintic,0>
Reading BasisSet from HDF5 file:qmc.dump.orbs.h5
<input node="atomicBasisSet" name="Gaussian" expandYlm="Gamess" angular="cartesian" elementType="Si" normalized="no" type="Numerical" expM="0" />
  AO BasisSet for Si
   Angular momentum expanded in cartesian functions x^lx y^ly z^lz according to Gamess
   Grid is created by the input paremters in h5
    Using log grid ri = 1e-06 rf = 100 npts = 1001
   R(n,l,m,s) 0 0 0 0
   R(n,l,m,s) 1 0 0 0
   R(n,l,m,s) 2 0 0 0
   R(n,l,m,s) 3 0 0 0
   R(n,l,m,s) 4 0 0 0
   R(n,l,m,s) 5 1 0 0
   R(n,l,m,s) 6 1 0 0
   R(n,l,m,s) 7 1 0 0
   R(n,l,m,s) 8 1 0 0
   R(n,l,m,s) 9 1 0 0
   R(n,l,m,s) 10 2 0 0
   R(n,l,m,s) 11 2 0 0
   R(n,l,m,s) 12 2 0 0
   R(n,l,m,s) 13 2 0 0
   R(n,l,m,s) 14 3 0 0
   R(n,l,m,s) 15 3 0 0
   R(n,l,m,s) 16 3 0 0
   R(n,l,m,s) 17 4 0 0
   R(n,l,m,s) 18 4 0 0
Expanding Ylm (angular function) according to Gamess using cartesian gaussians
Adding 1 cartesian gaussian orbitals for l= 0
Adding 1 cartesian gaussian orbitals for l= 0
Adding 1 cartesian gaussian orbitals for l= 0
Adding 1 cartesian gaussian orbitals for l= 0
Adding 1 cartesian gaussian orbitals for l= 0
Adding 3 cartesian gaussian orbitals for l= 1
Adding 3 cartesian gaussian orbitals for l= 1
Adding 3 cartesian gaussian orbitals for l= 1
Adding 3 cartesian gaussian orbitals for l= 1
Adding 3 cartesian gaussian orbitals for l= 1
Adding 6 cartesian gaussian orbitals for l= 2
Adding 6 cartesian gaussian orbitals for l= 2
Adding 6 cartesian gaussian orbitals for l= 2
Adding 6 cartesian gaussian orbitals for l= 2
Adding 10 cartesian gaussian orbitals for l= 3
Adding 10 cartesian gaussian orbitals for l= 3
Adding 10 cartesian gaussian orbitals for l= 3
Adding 15 cartesian gaussian orbitals for l= 4
Adding 15 cartesian gaussian orbitals for l= 4
  Setting cutoff radius 8.64717e+15

   Maximum Angular Momentum  = 4
   Number of Radial functors = 19
   Basis size                = 104

<input node="atomicBasisSet" name="Gaussian" expandYlm="Gamess" angular="cartesian" elementType="H" normalized="no" type="Numerical" expM="0" />
  AO BasisSet for H
   Angular momentum expanded in cartesian functions x^lx y^ly z^lz according to Gamess
   Grid is created by the input paremters in h5
    Using log grid ri = 1e-06 rf = 100 npts = 1001
   R(n,l,m,s) 0 0 0 0
   R(n,l,m,s) 1 0 0 0
   R(n,l,m,s) 2 0 0 0
   R(n,l,m,s) 3 0 0 0
   R(n,l,m,s) 4 0 0 0
   R(n,l,m,s) 5 1 0 0
   R(n,l,m,s) 6 1 0 0
   R(n,l,m,s) 7 1 0 0
   R(n,l,m,s) 8 1 0 0
   R(n,l,m,s) 9 2 0 0
   R(n,l,m,s) 10 2 0 0
   R(n,l,m,s) 11 2 0 0
   R(n,l,m,s) 12 3 0 0
   R(n,l,m,s) 13 3 0 0
Expanding Ylm (angular function) according to Gamess using cartesian gaussians
Adding 1 cartesian gaussian orbitals for l= 0
Adding 1 cartesian gaussian orbitals for l= 0
Adding 1 cartesian gaussian orbitals for l= 0
Adding 1 cartesian gaussian orbitals for l= 0
Adding 1 cartesian gaussian orbitals for l= 0
Adding 3 cartesian gaussian orbitals for l= 1
Adding 3 cartesian gaussian orbitals for l= 1
Adding 3 cartesian gaussian orbitals for l= 1
Adding 3 cartesian gaussian orbitals for l= 1
Adding 6 cartesian gaussian orbitals for l= 2
Adding 6 cartesian gaussian orbitals for l= 2
Adding 6 cartesian gaussian orbitals for l= 2
Adding 10 cartesian gaussian orbitals for l= 3
Adding 10 cartesian gaussian orbitals for l= 3
  Setting cutoff radius 9.95675e+11

   Maximum Angular Momentum  = 3
   Number of Radial functors = 14
   Basis size                = 55

  Created SPOSet builder named 'LCAOBSet' of type molecularorbital
Creating SPOSet in SlaterDetBuilder::put(xmlNodePtr cur).
spo_name = spo-up
  Building SPOSet 'spo-up' with 'LCAOBSet' basis set.
Creating SPOSet in SlaterDetBuilder::put(xmlNodePtr cur).
spo_name = spo-dn
  Building SPOSet 'spo-dn' with 'LCAOBSet' basis set.
Using Bryan's algorithm for MultiSlaterDeterminant expansion. 
Creating base determinant (up) for MSD expansion. 
Creating base determinant (down) for MSD expansion. 
Found Multideterminants in H5 File
Found determinant list. 
Reading CI expansion from HDF5:qmc.dump.orbs.h5
 Done reading CIs from H5!!
 Sorting unique CIs
 Done Sorting unique CIs
Found 360162 terms in the MSD expansion.
Norm of ci vector (sum of ci^2): 1
Found 27171 unique up determinants.
Found 27171 unique down determinants.
Number of terms in pairs array: 1036
Number of terms in pairs array: 1036
CI coefficients are not optimizable. 
  Added a fermionic WaveFunctionComponent SlaterDet

   Jastrow
   -------
    Name: J2   Type: Two-Body   Function: Bspline

    Radial function for species: u - u
     Number of parameters: 10
     Cusp: -0.25
     Cutoff radius: 10

     Name                        Value Type Recompute Use Index
     ---- ---------------------------- ---- --------- --- -----
     uu_0                 0.000000e+00    1         1  ON     0
     uu_1                 0.000000e+00    1         1  ON     1
     uu_2                 0.000000e+00    1         1  ON     2
     uu_3                 0.000000e+00    1         1  ON     3
     uu_4                 0.000000e+00    1         1  ON     4
     uu_5                 0.000000e+00    1         1  ON     5
     uu_6                 0.000000e+00    1         1  ON     6
     uu_7                 0.000000e+00    1         1  ON     7
     uu_8                 0.000000e+00    1         1  ON     8
     uu_9                 0.000000e+00    1         1  ON     9

    Radial function for species: u - d
     Number of parameters: 10
     Cusp: -0.5
     Cutoff radius: 10

     Name                        Value Type Recompute Use Index
     ---- ---------------------------- ---- --------- --- -----
     ud_0                 0.000000e+00    1         1  ON     0
     ud_1                 0.000000e+00    1         1  ON     1
     ud_2                 0.000000e+00    1         1  ON     2
     ud_3                 0.000000e+00    1         1  ON     3
     ud_4                 0.000000e+00    1         1  ON     4
     ud_5                 0.000000e+00    1         1  ON     5
     ud_6                 0.000000e+00    1         1  ON     6
     ud_7                 0.000000e+00    1         1  ON     7
     ud_8                 0.000000e+00    1         1  ON     8
     ud_9                 0.000000e+00    1         1  ON     9


   Jastrow
   -------
    Name: J1   Type: One-Body   Function: Bspline

    Radial function for element: Si
     Number of parameters: 10
     Cusp: 0
     Cutoff radius: 10

      Name                        Value Type Recompute Use Index
     ----- ---------------------------- ---- --------- --- -----
     eSi_0                 0.000000e+00    1         1  ON     0
     eSi_1                 0.000000e+00    1         1  ON     1
     eSi_2                 0.000000e+00    1         1  ON     2
     eSi_3                 0.000000e+00    1         1  ON     3
     eSi_4                 0.000000e+00    1         1  ON     4
     eSi_5                 0.000000e+00    1         1  ON     5
     eSi_6                 0.000000e+00    1         1  ON     6
     eSi_7                 0.000000e+00    1         1  ON     7
     eSi_8                 0.000000e+00    1         1  ON     8
     eSi_9                 0.000000e+00    1         1  ON     9

    Radial function for element: H
     Number of parameters: 10
     Cusp: 0
     Cutoff radius: 10

     Name                        Value Type Recompute Use Index
     ---- ---------------------------- ---- --------- --- -----
     eH_0                 0.000000e+00    1         1  ON     0
     eH_1                 0.000000e+00    1         1  ON     1
     eH_2                 0.000000e+00    1         1  ON     2
     eH_3                 0.000000e+00    1         1  ON     3
     eH_4                 0.000000e+00    1         1  ON     4
     eH_5                 0.000000e+00    1         1  ON     5
     eH_6                 0.000000e+00    1         1  ON     6
     eH_7                 0.000000e+00    1         1  ON     7
     eH_8                 0.000000e+00    1         1  ON     8
     eH_9                 0.000000e+00    1         1  ON     9


   Jastrow
   -------
    Name: J3   Type: eeI   Function: polynomial

     Ion: Si   electron-electron: u - u
      Number of parameters for e-e: 3, for e-I: 3
      Cutoff radius: 10

Expected 26 parameters, but found 0 in PolynomialFunctor3D.
     Ion: Si   electron-electron: u - d
      Number of parameters for e-e: 3, for e-I: 3
      Cutoff radius: 10

Expected 26 parameters, but found 0 in PolynomialFunctor3D.
     Ion: H   electron-electron: u - u
      Number of parameters for e-e: 3, for e-I: 3
      Cutoff radius: 10

Expected 26 parameters, but found 0 in PolynomialFunctor3D.
     Ion: H   electron-electron: u - d
      Number of parameters for e-e: 3, for e-I: 3
      Cutoff radius: 10

Expected 26 parameters, but found 0 in PolynomialFunctor3D.
  QMCHamiltonian::addOperator Kinetic to H, physical Hamiltonian 
  QMCHamiltonian::addOperator ElecElec to H, physical Hamiltonian 
QMCHamiltonian::addOperatorType added type coulomb named ElecElec
  QMCHamiltonian::addOperator IonIon to H, physical Hamiltonian 
QMCHamiltonian::addOperatorType added type coulomb named IonIon

  ECPotential builder for pseudopotential 

  Adding pseudopotential for H
   Linear grid  ri=0 rf=10 npts = 10001
    ECPComponentBuilder::buildSemiLocalAndLocal 
    Assuming Hartree unit
   Number of angular momentum channels 2
   Maximum angular momentum channel 1
   Creating a Linear Grid Rmax=1e-10
  Using global grid with delta = 0.001
   Making L=1 a local potential with a radial cutoff of 9.999
    Non-local pseudopotential parameters
    Maximum angular mementum = 0
    Number of non-local channels = 1
       l(0)=0
    Cutoff radius = 0.001
    Spherical grids and weights: 
                        1                 0                 0       0.08333333333
                       -1   1.224646799e-16                 0       0.08333333333
             0.4472135955       0.894427191                 0       0.08333333333
            -0.4472135955      0.7236067977      0.5257311121       0.08333333333
             0.4472135955      0.2763932023      0.8506508084       0.08333333333
            -0.4472135955     -0.2763932023      0.8506508084       0.08333333333
             0.4472135955     -0.7236067977      0.5257311121       0.08333333333
            -0.4472135955      -0.894427191   1.095357397e-16       0.08333333333
             0.4472135955     -0.7236067977     -0.5257311121       0.08333333333
            -0.4472135955     -0.2763932023     -0.8506508084       0.08333333333
             0.4472135955      0.2763932023     -0.8506508084       0.08333333333
            -0.4472135955      0.7236067977     -0.5257311121       0.08333333333
    Maximum cutoff radius 0.001

  Adding pseudopotential for Si
   Linear grid  ri=0 rf=10 npts = 10001
    ECPComponentBuilder::buildSemiLocalAndLocal 
    Assuming Hartree unit
   Number of angular momentum channels 3
   Maximum angular momentum channel 2
   Creating a Linear Grid Rmax=2.69
  Using global grid with delta = 0.001
   Making L=2 a local potential with a radial cutoff of 9.999
    Non-local pseudopotential parameters
    Maximum angular mementum = 1
    Number of non-local channels = 2
       l(0)=0
       l(1)=1
    Cutoff radius = 2.69
    Spherical grids and weights: 
                        1                 0                 0       0.08333333333
                       -1   1.224646799e-16                 0       0.08333333333
             0.4472135955       0.894427191                 0       0.08333333333
            -0.4472135955      0.7236067977      0.5257311121       0.08333333333
             0.4472135955      0.2763932023      0.8506508084       0.08333333333
            -0.4472135955     -0.2763932023      0.8506508084       0.08333333333
             0.4472135955     -0.7236067977      0.5257311121       0.08333333333
            -0.4472135955      -0.894427191   1.095357397e-16       0.08333333333
             0.4472135955     -0.7236067977     -0.5257311121       0.08333333333
            -0.4472135955     -0.2763932023     -0.8506508084       0.08333333333
             0.4472135955      0.2763932023     -0.8506508084       0.08333333333
            -0.4472135955      0.7236067977     -0.5257311121       0.08333333333
    Maximum cutoff radius 2.69
  QMCHamiltonian::addOperator LocalECP to H, physical Hamiltonian 

  Using NonLocalECP potential 
    Maximum grid on a sphere for NonLocalECPotential: 12
  QMCHamiltonian::addOperator NonLocalECP to H, physical Hamiltonian 
QMCHamiltonian::addOperatorType added type pseudo named PseudoPot

  QMCHamiltonian::add2WalkerProperty added
    5 to P::PropertyList 
    0 to P::Collectables 
    starting Index of the observables in P::PropertyList = 9
ParticleSetPool::randomize 1 ParticleSet.
<init source="ion0" target="e">
</init>
  Initialization Execution time = 1.228 secs
=========================================================
 Summary of QMC systems 
=========================================================
ParticleSetPool has: 

  ParticleSet 'e' contains 8 particles :  u(4) d(4)

    u -4.6053273204e-01 -1.0107625628e+00 -1.3254616706e-01
    u -9.6287783906e-01 -9.5746796099e-02  5.6124741444e-01
    u  1.1754976094e+00  8.3450474134e-01  9.4377305833e-01
    u -1.6922135376e+00  2.7298400314e+00 -1.6529542908e+00
    d  3.7180324694e-01 -5.9154596477e-01  8.7357630420e-01
    d -2.7130477237e-01  1.0514685464e+00  2.6852832003e-01
    d -1.1331570360e+00 -2.2655415798e+00  2.3864506803e+00
    d  1.3609496193e+00 -5.5766725439e-01 -1.3501920744e+00

  Distance table for dissimilar particles (A-B):
    source: ion0  target: e
    Using structure-of-arrays (SoA) data layout
    Distance computations use open boundary conditions in 3D.

  Distance table for similar particles (A-A):
    source/target: e
    Using structure-of-arrays (SoA) data layout
    Distance computations use open boundary conditions in 3D.


  ParticleSet 'ion0' contains 5 particles :  Si(1) H(4)

    Si  0.0000000000e+00  0.0000000000e+00  0.0000000000e+00
    H  1.6145818874e+00  1.6145818874e+00  1.6145818874e+00
    H -1.6145818874e+00 -1.6145818874e+00  1.6145818874e+00
    H -1.6145818874e+00  1.6145818874e+00 -1.6145818874e+00
    H  1.6145818874e+00 -1.6145818874e+00 -1.6145818874e+00

  Distance table for similar particles (A-A):
    source/target: ion0
    Using structure-of-arrays (SoA) data layout
    Distance computations use open boundary conditions in 3D.


  Hamiltonian h0
  Kinetic         Kinetic energy
  ElecElec        CoulombAB source=e

  IonIon          CoulombAA source/target ion0

  LocalECP        LocalECPotential: ion0
  NonLocalECP     NonLocalECPotential: ion0

Loop execution max-interations = 5

=========================================================
  Start QMCFixedSampleLinearOptimize
  File Root qmc.dump.s000 append = no 
=========================================================
  Skip QMCDriver::putQMCInfo 
  Resetting Properties of the walkers 1 x 14
  Adding 21 walkers to 0 existing sets
  Total number of walkers: 1.3440000000e+03
  Total weight: 1.3440000000e+03

=========================================================
  Start VMC
  File Root qmc.dump.s000 append = no 
=========================================================
Resetting walkers
  Using the current 21 walkers.
  Total number of walkers: 1.3440000000e+03
  Total weight: 1.3440000000e+03
  Resetting Properties of the walkers 1 x 14

<vmc function="put">
  qmc_counter=0  my_counter=0
  time step      = 5.0000000000e-01
  blocks         = 20
  steps          = 3
  substeps       = 4
  current        = 0
  target samples = 6.4000000000e+04
  walkers/mpi    = 21

  stepsbetweensamples = 1
  SpinMoves      = no
<parameter name="blocks" condition="int">20</parameter>
<parameter name="blocks_between_recompute" condition="int">0</parameter>
<parameter name="check_properties" condition="int">100</parameter>
<parameter name="checkproperties" condition="int">100</parameter>
<parameter name="current" condition="int">0</parameter>
<parameter name="dmcwalkersperthread" condition="real">4.8000000000e+01</parameter>
<parameter name="maxcpusecs" condition="real">3.6000000000e+05</parameter>
<parameter name="record_configs" condition="int">0</parameter>
<parameter name="record_walkers" condition="int">1</parameter>
<parameter name="recordconfigs" condition="int">0</parameter>
<parameter name="recordwalkers" condition="int">1</parameter>
<parameter name="rewind" condition="int">0</parameter>
<parameter name="samples" condition="real">6.4000000000e+04</parameter>
<parameter name="samplesperthread" condition="real">4.8000000000e+01</parameter>
<parameter name="spinmass" condition="double">1.0000000000e+00</parameter>
<parameter name="spinmoves" condition="string">no</parameter>
<parameter name="steps" condition="int">3</parameter>
<parameter name="stepsbetweensamples" condition="int">1</parameter>
<parameter name="store_configs" condition="int">0</parameter>
<parameter name="storeconfigs" condition="int">0</parameter>
<parameter name="sub_steps" condition="int">4</parameter>
<parameter name="substeps" condition="int">4</parameter>
<parameter name="tau" condition="au">5.0000000000e-01</parameter>
<parameter name="time_step" condition="au">5.0000000000e-01</parameter>
<parameter name="timestep" condition="au">5.0000000000e-01</parameter>
<parameter name="use_drift" condition="string">no</parameter>
<parameter name="usedrift" condition="string">no</parameter>
<parameter name="walkers" condition="int">21</parameter>
<parameter name="warmup_steps" condition="int">100</parameter>
<parameter name="warmupsteps" condition="int">100</parameter>
  DumpConfig==false Nothing (configurations, state) will be saved.
  Walker Samples are dumped every 1 steps.
</vmc>
  Set drift_modifier UNR parameter a = 1.0000000000e+00
 Using QMCCostFunction::QMCCostFunction
  Set drift_modifier UNR parameter a = 1.0000000000e+00
<optimization-report>
<vmc stage="main" blocks="20">
  CloneManager::makeClones makes 21 clones for W/Psi/H.
  Cloning methods for both Psi and H are used
===== Memory Usage before cloning =====
Available memory on node 0, free + buffers : 561382 MB
Memory footprint by rank 0 on node 0       : 257 MB
==================================================
===== Memory Usage after cloning =====
Available memory on node 0, free + buffers : 560714 MB
Memory footprint by rank 0 on node 0       : 551 MB
==================================================
  Initial partition of walkers 0 1 2 3 4 5 6 7 8 9 10 11 12 13 14 15 16 17 18 19 20 21 

  Using Particle by Particle moves
  Walker moves without drift
  Total Sample Size   =64512
  Walker distribution on root = 0 1 2 3 4 5 6 7 8 9 10 11 12 13 14 15 16 17 18 19 20 21 
  Using Locality Approximation
===== Memory Usage after the buffer registration =====
Available memory on node 0, free + buffers : 560460 MB
Memory footprint by rank 0 on node 0       : 697 MB
==================================================
  Anonymous Buffer size per walker : 7492808 Bytes.
MEMORY increase 150 MB VMC::resetRun
====================================================
  SimpleFixedNodeBranch::finalize after a VMC block
    QMC counter        = 0
    time step          = 0.5
    reference energy   = -6.26595
    reference variance = 0.0888422
====================================================
  Execution time = 3.0093e+01
</vmc>
<opt stage="setup">
  <log>
   Reading configurations from h5FileRoot qmc.dump.s000
  QMCCostFunction is created with 21 threads.
  Using Nonlocal PP in Opt: no
   Number of samples loaded to each thread : 48 48 48 48 48 48 48 48 48 48 48 48 48 48 48 48 48 48 48 48 48 
  VMC Eavg = -6.2639e+00
  VMC Evar = 1.0542e-01
  Total weights = 6.4512e+04
  Execution time = 5.9156e+00
  </log>
</opt>
<opt stage="main" walkers="64512">
  <log>

*****************************************
Building overlap and Hamiltonian matrices
*****************************************

Among totally 40 optimized parameters, largest LM parameter change : 1.0095e-01 at parameter 10

******************************************************************************
Init Cost =   1.0542e-01    New Cost =   8.3706e-02  Delta Cost =  -2.1709e-02
******************************************************************************

The new set of parameters is valid. Updating the trial wave function!

*****************************************************************************
Applying the update for shift_i =   1.0000e-02     and shift_s =   2.5000e-01
*****************************************************************************
  Execution time = 3.6032e+01
  </log>
  <optVariables href="qmc.dump.s000.opt.xml">
 uu_0                 7.375986e-02 1 1  ON 0
 uu_1                 4.065761e-02 1 1  ON 1
 uu_2                 1.009775e-03 1 1  ON 2
 uu_3                -4.448211e-03 1 1  ON 3
 uu_4                -1.122891e-02 1 1  ON 4
 uu_5                -1.604080e-02 1 1  ON 5
 uu_6                -1.950256e-02 1 1  ON 6
 uu_7                -2.006860e-02 1 1  ON 7
 uu_8                -2.034800e-02 1 1  ON 8
 uu_9                -1.932904e-02 1 1  ON 9
 ud_0                 1.009464e-01 1 1  ON 10
 ud_1                 5.005875e-03 1 1  ON 11
 ud_2                -5.976978e-03 1 1  ON 12
 ud_3                -9.400249e-03 1 1  ON 13
 ud_4                -1.843720e-02 1 1  ON 14
 ud_5                -2.048712e-02 1 1  ON 15
 ud_6                -2.289607e-02 1 1  ON 16
 ud_7                -2.337417e-02 1 1  ON 17
 ud_8                -2.212398e-02 1 1  ON 18
 ud_9                -2.012832e-02 1 1  ON 19
eSi_0                -3.807052e-02 1 1  ON 20
eSi_1                -9.529822e-03 1 1  ON 21
eSi_2                -4.523137e-03 1 1  ON 22
eSi_3                 8.897640e-03 1 1  ON 23
eSi_4                 1.638760e-02 1 1  ON 24
eSi_5                 1.169003e-02 1 1  ON 25
eSi_6                -2.550764e-04 1 1  ON 26
eSi_7                -6.827738e-03 1 1  ON 27
eSi_8                -1.047063e-02 1 1  ON 28
eSi_9                 5.332323e-03 1 1  ON 29
 eH_0                -2.935357e-02 1 1  ON 30
 eH_1                -2.829068e-02 1 1  ON 31
 eH_2                -1.893717e-02 1 1  ON 32
 eH_3                -1.629318e-02 1 1  ON 33
 eH_4                -1.076461e-02 1 1  ON 34
 eH_5                -5.162109e-03 1 1  ON 35
 eH_6                 1.510210e-03 1 1  ON 36
 eH_7                 6.235512e-03 1 1  ON 37
 eH_8                 1.295139e-02 1 1  ON 38
 eH_9                 8.467455e-03 1 1  ON 39
  </optVariables>
   Restore the number of walkers to 21, removing 0 walkers.
</opt>
</optimization-report>
  QMC Execution time = 36.03 secs

=========================================================
  Start QMCFixedSampleLinearOptimize
  File Root qmc.dump.s001 append = no 
=========================================================
  Skip QMCDriver::putQMCInfo 
  Resetting Properties of the walkers 1 x 14

=========================================================
  Start VMC
  File Root qmc.dump.s001 append = no 
=========================================================
Using existing walkers 
  Resetting Properties of the walkers 1 x 14

<vmc function="put">
  qmc_counter=1  my_counter=0
  time step      = 0.5
  blocks         = 20
  steps          = 3
  substeps       = 4
  current        = 0
  target samples = 6.4e+04
  walkers/mpi    = 21

  stepsbetweensamples = 1
  SpinMoves      = no
<parameter name="blocks" condition="int">20</parameter>
<parameter name="blocks_between_recompute" condition="int">0</parameter>
<parameter name="check_properties" condition="int">100</parameter>
<parameter name="checkproperties" condition="int">100</parameter>
<parameter name="current" condition="int">0</parameter>
<parameter name="dmcwalkersperthread" condition="real">48</parameter>
<parameter name="maxcpusecs" condition="real">3.6e+05</parameter>
<parameter name="record_configs" condition="int">0</parameter>
<parameter name="record_walkers" condition="int">1</parameter>
<parameter name="recordconfigs" condition="int">0</parameter>
<parameter name="recordwalkers" condition="int">1</parameter>
<parameter name="rewind" condition="int">0</parameter>
<parameter name="samples" condition="real">6.4e+04</parameter>
<parameter name="samplesperthread" condition="real">48</parameter>
<parameter name="spinmass" condition="double">1</parameter>
<parameter name="spinmoves" condition="string">no</parameter>
<parameter name="steps" condition="int">3</parameter>
<parameter name="stepsbetweensamples" condition="int">1</parameter>
<parameter name="store_configs" condition="int">0</parameter>
<parameter name="storeconfigs" condition="int">0</parameter>
<parameter name="sub_steps" condition="int">4</parameter>
<parameter name="substeps" condition="int">4</parameter>
<parameter name="tau" condition="au">0.5</parameter>
<parameter name="time_step" condition="au">0.5</parameter>
<parameter name="timestep" condition="au">0.5</parameter>
<parameter name="use_drift" condition="string">no</parameter>
<parameter name="usedrift" condition="string">no</parameter>
<parameter name="walkers" condition="int">1</parameter>
<parameter name="warmup_steps" condition="int">100</parameter>
<parameter name="warmupsteps" condition="int">100</parameter>
  DumpConfig==false Nothing (configurations, state) will be saved.
  Walker Samples are dumped every 1 steps.
</vmc>
    Restarting, cummulative properties:
      energy     = -6.266
      variance   = 0
      r2accepted = 1e-10
      r2proposed = 1e-10
  Set drift_modifier UNR parameter a = 1
 Using QMCCostFunction::QMCCostFunction
  Set drift_modifier UNR parameter a = 1.0000e+00
  EstimatorManagerBase::add replace LocalEnergy estimator.
<optimization-report>
<vmc stage="main" blocks="20">
  Cannot make clones again. Use existing 21 clones
  Initial partition of walkers 0 1 2 3 4 5 6 7 8 9 10 11 12 13 14 15 16 17 18 19 20 21 

  Using Particle by Particle moves
  Walker moves without drift
  Total Sample Size   =64512
  Walker distribution on root = 0 1 2 3 4 5 6 7 8 9 10 11 12 13 14 15 16 17 18 19 20 21 
  Using Locality Approximation
===== Memory Usage after the buffer registration =====
Available memory on node 0, free + buffers : 560396 MB
Memory footprint by rank 0 on node 0       : 702 MB
==================================================
  Anonymous Buffer size per walker : 7492808 Bytes.
MEMORY increase 150 MB VMC::resetRun
====================================================
  SimpleFixedNodeBranch::finalize after a VMC block
    QMC counter        = 1
    time step          = 0.5
    reference energy   = -6.27571
    reference variance = 0.0529067
====================================================
  Execution time = 2.9846e+01
</vmc>
<opt stage="setup">
  <log>
   Reading configurations from h5FileRoot qmc.dump.s001
  QMCCostFunction is created with 21 threads.
  Using Nonlocal PP in Opt: no
   Number of samples loaded to each thread : 48 48 48 48 48 48 48 48 48 48 48 48 48 48 48 48 48 48 48 48 48 
  VMC Eavg = -6.2662e+00
  VMC Evar = 6.9211e-02
  Total weights = 6.4512e+04
  Execution time = 5.9697e+00
  </log>
</opt>
<opt stage="main" walkers="64512">
  <log>

*****************************************
Building overlap and Hamiltonian matrices
*****************************************

Among totally 40 optimized parameters, largest LM parameter change : 5.1397e-02 at parameter 0

******************************************************************************
Init Cost =   6.9211e-02    New Cost =   6.7912e-02  Delta Cost =  -1.2994e-03
******************************************************************************

The new set of parameters is valid. Updating the trial wave function!

*****************************************************************************
Applying the update for shift_i =   1.0000e-02     and shift_s =   6.2500e-02
*****************************************************************************
  Execution time = 3.5833e+01
  </log>
  <optVariables href="qmc.dump.s001.opt.xml">
 uu_0                 1.251567e-01 1 1  ON 0
 uu_1                 6.389037e-02 1 1  ON 1
 uu_2                 1.171205e-02 1 1  ON 2
 uu_3                -3.262532e-03 1 1  ON 3
 uu_4                -1.533833e-02 1 1  ON 4
 uu_5                -2.387775e-02 1 1  ON 5
 uu_6                -2.909847e-02 1 1  ON 6
 uu_7                -3.163823e-02 1 1  ON 7
 uu_8                -2.995323e-02 1 1  ON 8
 uu_9                -2.485158e-02 1 1  ON 9
 ud_0                 1.388703e-01 1 1  ON 10
 ud_1                 2.156350e-02 1 1  ON 11
 ud_2                 2.369322e-03 1 1  ON 12
 ud_3                -7.487211e-03 1 1  ON 13
 ud_4                -2.138895e-02 1 1  ON 14
 ud_5                -2.646764e-02 1 1  ON 15
 ud_6                -3.099703e-02 1 1  ON 16
 ud_7                -3.205609e-02 1 1  ON 17
 ud_8                -3.077216e-02 1 1  ON 18
 ud_9                -2.888193e-02 1 1  ON 19
eSi_0                -5.855246e-02 1 1  ON 20
eSi_1                -1.521791e-02 1 1  ON 21
eSi_2                -7.247641e-03 1 1  ON 22
eSi_3                 1.294320e-02 1 1  ON 23
eSi_4                 2.284036e-02 1 1  ON 24
eSi_5                 1.545632e-02 1 1  ON 25
eSi_6                 1.183141e-03 1 1  ON 26
eSi_7                -2.755781e-03 1 1  ON 27
eSi_8                -4.531195e-03 1 1  ON 28
eSi_9                 3.738149e-03 1 1  ON 29
 eH_0                -5.032029e-02 1 1  ON 30
 eH_1                -4.633345e-02 1 1  ON 31
 eH_2                -3.412859e-02 1 1  ON 32
 eH_3                -2.560077e-02 1 1  ON 33
 eH_4                -1.436209e-02 1 1  ON 34
 eH_5                -2.031471e-03 1 1  ON 35
 eH_6                 9.835746e-03 1 1  ON 36
 eH_7                 1.878280e-02 1 1  ON 37
 eH_8                 2.453860e-02 1 1  ON 38
 eH_9                 1.926990e-02 1 1  ON 39
  </optVariables>
   Restore the number of walkers to 21, removing 0 walkers.
</opt>
</optimization-report>
  QMC Execution time = 35.83 secs

=========================================================
  Start QMCFixedSampleLinearOptimize
  File Root qmc.dump.s002 append = no 
=========================================================
  Skip QMCDriver::putQMCInfo 
  Resetting Properties of the walkers 1 x 14

=========================================================
  Start VMC
  File Root qmc.dump.s002 append = no 
=========================================================
Using existing walkers 
  Resetting Properties of the walkers 1 x 14

<vmc function="put">
  qmc_counter=2  my_counter=0
  time step      = 0.5
  blocks         = 20
  steps          = 3
  substeps       = 4
  current        = 0
  target samples = 6.4e+04
  walkers/mpi    = 21

  stepsbetweensamples = 1
  SpinMoves      = no
<parameter name="blocks" condition="int">20</parameter>
<parameter name="blocks_between_recompute" condition="int">0</parameter>
<parameter name="check_properties" condition="int">100</parameter>
<parameter name="checkproperties" condition="int">100</parameter>
<parameter name="current" condition="int">0</parameter>
<parameter name="dmcwalkersperthread" condition="real">48</parameter>
<parameter name="maxcpusecs" condition="real">3.6e+05</parameter>
<parameter name="record_configs" condition="int">0</parameter>
<parameter name="record_walkers" condition="int">1</parameter>
<parameter name="recordconfigs" condition="int">0</parameter>
<parameter name="recordwalkers" condition="int">1</parameter>
<parameter name="rewind" condition="int">0</parameter>
<parameter name="samples" condition="real">6.4e+04</parameter>
<parameter name="samplesperthread" condition="real">48</parameter>
<parameter name="spinmass" condition="double">1</parameter>
<parameter name="spinmoves" condition="string">no</parameter>
<parameter name="steps" condition="int">3</parameter>
<parameter name="stepsbetweensamples" condition="int">1</parameter>
<parameter name="store_configs" condition="int">0</parameter>
<parameter name="storeconfigs" condition="int">0</parameter>
<parameter name="sub_steps" condition="int">4</parameter>
<parameter name="substeps" condition="int">4</parameter>
<parameter name="tau" condition="au">0.5</parameter>
<parameter name="time_step" condition="au">0.5</parameter>
<parameter name="timestep" condition="au">0.5</parameter>
<parameter name="use_drift" condition="string">no</parameter>
<parameter name="usedrift" condition="string">no</parameter>
<parameter name="walkers" condition="int">1</parameter>
<parameter name="warmup_steps" condition="int">100</parameter>
<parameter name="warmupsteps" condition="int">100</parameter>
  DumpConfig==false Nothing (configurations, state) will be saved.
  Walker Samples are dumped every 1 steps.
</vmc>
    Restarting, cummulative properties:
      energy     = -6.271
      variance   = 0
      r2accepted = 1e-10
      r2proposed = 1e-10
  Set drift_modifier UNR parameter a = 1
 Using QMCCostFunction::QMCCostFunction
  Set drift_modifier UNR parameter a = 1.0000e+00
  EstimatorManagerBase::add replace LocalEnergy estimator.
<optimization-report>
<vmc stage="main" blocks="20">
  Cannot make clones again. Use existing 21 clones
  Initial partition of walkers 0 1 2 3 4 5 6 7 8 9 10 11 12 13 14 15 16 17 18 19 20 21 

  Using Particle by Particle moves
  Walker moves without drift
  Total Sample Size   =64512
  Walker distribution on root = 0 1 2 3 4 5 6 7 8 9 10 11 12 13 14 15 16 17 18 19 20 21 
  Using Locality Approximation
===== Memory Usage after the buffer registration =====
Available memory on node 0, free + buffers : 560394 MB
Memory footprint by rank 0 on node 0       : 702 MB
==================================================
  Anonymous Buffer size per walker : 7492808 Bytes.
MEMORY increase 150 MB VMC::resetRun
====================================================
  SimpleFixedNodeBranch::finalize after a VMC block
    QMC counter        = 2
    time step          = 0.5
    reference energy   = -6.25525
    reference variance = 0.133278
====================================================
  Execution time = 2.9724e+01
</vmc>
<opt stage="setup">
  <log>
   Reading configurations from h5FileRoot qmc.dump.s002
  QMCCostFunction is created with 21 threads.
  Using Nonlocal PP in Opt: no
   Number of samples loaded to each thread : 48 48 48 48 48 48 48 48 48 48 48 48 48 48 48 48 48 48 48 48 48 
  VMC Eavg = -6.2682e+00
  VMC Evar = 7.0984e-02
  Total weights = 6.4512e+04
  Execution time = 5.9231e+00
  </log>
</opt>
<opt stage="main" walkers="64512">
  <log>

*****************************************
Building overlap and Hamiltonian matrices
*****************************************

Among totally 40 optimized parameters, largest LM parameter change : 3.7266e-02 at parameter 0

******************************************************************************
Init Cost =   7.0984e-02    New Cost =   7.0616e-02  Delta Cost =  -3.6826e-04
******************************************************************************

The new set of parameters is valid. Updating the trial wave function!

*****************************************************************************
Applying the update for shift_i =   1.0000e-02     and shift_s =   1.5625e-02
*****************************************************************************
  Execution time = 3.5665e+01
  </log>
  <optVariables href="qmc.dump.s002.opt.xml">
 uu_0                 1.624223e-01 1 1  ON 0
 uu_1                 6.466617e-02 1 1  ON 1
 uu_2                 9.742861e-03 1 1  ON 2
 uu_3                -7.422899e-03 1 1  ON 3
 uu_4                -2.125559e-02 1 1  ON 4
 uu_5                -3.203379e-02 1 1  ON 5
 uu_6                -3.993316e-02 1 1  ON 6
 uu_7                -4.416120e-02 1 1  ON 7
 uu_8                -4.347568e-02 1 1  ON 8
 uu_9                -3.624477e-02 1 1  ON 9
 ud_0                 1.448570e-01 1 1  ON 10
 ud_1                 2.134201e-02 1 1  ON 11
 ud_2                 1.235382e-03 1 1  ON 12
 ud_3                -1.011183e-02 1 1  ON 13
 ud_4                -2.588646e-02 1 1  ON 14
 ud_5                -3.286425e-02 1 1  ON 15
 ud_6                -3.829820e-02 1 1  ON 16
 ud_7                -3.962117e-02 1 1  ON 17
 ud_8                -3.764411e-02 1 1  ON 18
 ud_9                -3.098023e-02 1 1  ON 19
eSi_0                -7.596372e-02 1 1  ON 20
eSi_1                -2.302340e-02 1 1  ON 21
eSi_2                -9.866493e-03 1 1  ON 22
eSi_3                 1.339009e-02 1 1  ON 23
eSi_4                 2.299838e-02 1 1  ON 24
eSi_5                 1.425980e-02 1 1  ON 25
eSi_6                -6.148313e-03 1 1  ON 26
eSi_7                -1.336726e-02 1 1  ON 27
eSi_8                -6.794971e-03 1 1  ON 28
eSi_9                 1.761500e-02 1 1  ON 29
 eH_0                -6.937945e-02 1 1  ON 30
 eH_1                -6.640682e-02 1 1  ON 31
 eH_2                -5.443698e-02 1 1  ON 32
 eH_3                -4.608658e-02 1 1  ON 33
 eH_4                -3.326932e-02 1 1  ON 34
 eH_5                -1.940872e-02 1 1  ON 35
 eH_6                -2.638941e-03 1 1  ON 36
 eH_7                 1.088332e-02 1 1  ON 37
 eH_8                 2.075317e-02 1 1  ON 38
 eH_9                 2.021088e-02 1 1  ON 39
  </optVariables>
   Restore the number of walkers to 21, removing 0 walkers.
</opt>
</optimization-report>
  QMC Execution time = 35.67 secs

=========================================================
  Start QMCFixedSampleLinearOptimize
  File Root qmc.dump.s003 append = no 
=========================================================
  Skip QMCDriver::putQMCInfo 
  Resetting Properties of the walkers 1 x 14

=========================================================
  Start VMC
  File Root qmc.dump.s003 append = no 
=========================================================
Using existing walkers 
  Resetting Properties of the walkers 1 x 14

<vmc function="put">
  qmc_counter=3  my_counter=0
  time step      = 0.5
  blocks         = 20
  steps          = 3
  substeps       = 4
  current        = 0
  target samples = 6.4e+04
  walkers/mpi    = 21

  stepsbetweensamples = 1
  SpinMoves      = no
<parameter name="blocks" condition="int">20</parameter>
<parameter name="blocks_between_recompute" condition="int">0</parameter>
<parameter name="check_properties" condition="int">100</parameter>
<parameter name="checkproperties" condition="int">100</parameter>
<parameter name="current" condition="int">0</parameter>
<parameter name="dmcwalkersperthread" condition="real">48</parameter>
<parameter name="maxcpusecs" condition="real">3.6e+05</parameter>
<parameter name="record_configs" condition="int">0</parameter>
<parameter name="record_walkers" condition="int">1</parameter>
<parameter name="recordconfigs" condition="int">0</parameter>
<parameter name="recordwalkers" condition="int">1</parameter>
<parameter name="rewind" condition="int">0</parameter>
<parameter name="samples" condition="real">6.4e+04</parameter>
<parameter name="samplesperthread" condition="real">48</parameter>
<parameter name="spinmass" condition="double">1</parameter>
<parameter name="spinmoves" condition="string">no</parameter>
<parameter name="steps" condition="int">3</parameter>
<parameter name="stepsbetweensamples" condition="int">1</parameter>
<parameter name="store_configs" condition="int">0</parameter>
<parameter name="storeconfigs" condition="int">0</parameter>
<parameter name="sub_steps" condition="int">4</parameter>
<parameter name="substeps" condition="int">4</parameter>
<parameter name="tau" condition="au">0.5</parameter>
<parameter name="time_step" condition="au">0.5</parameter>
<parameter name="timestep" condition="au">0.5</parameter>
<parameter name="use_drift" condition="string">no</parameter>
<parameter name="usedrift" condition="string">no</parameter>
<parameter name="walkers" condition="int">1</parameter>
<parameter name="warmup_steps" condition="int">100</parameter>
<parameter name="warmupsteps" condition="int">100</parameter>
  DumpConfig==false Nothing (configurations, state) will be saved.
  Walker Samples are dumped every 1 steps.
</vmc>
    Restarting, cummulative properties:
      energy     = -6.266
      variance   = 0
      r2accepted = 1e-10
      r2proposed = 1e-10
  Set drift_modifier UNR parameter a = 1
 Using QMCCostFunction::QMCCostFunction
  Set drift_modifier UNR parameter a = 1.0000e+00
  EstimatorManagerBase::add replace LocalEnergy estimator.
<optimization-report>
<vmc stage="main" blocks="20">
  Cannot make clones again. Use existing 21 clones
  Initial partition of walkers 0 1 2 3 4 5 6 7 8 9 10 11 12 13 14 15 16 17 18 19 20 21 

  Using Particle by Particle moves
  Walker moves without drift
  Total Sample Size   =64512
  Walker distribution on root = 0 1 2 3 4 5 6 7 8 9 10 11 12 13 14 15 16 17 18 19 20 21 
  Using Locality Approximation
===== Memory Usage after the buffer registration =====
Available memory on node 0, free + buffers : 560394 MB
Memory footprint by rank 0 on node 0       : 702 MB
==================================================
  Anonymous Buffer size per walker : 7492808 Bytes.
MEMORY increase 150 MB VMC::resetRun
====================================================
  SimpleFixedNodeBranch::finalize after a VMC block
    QMC counter        = 3
    time step          = 0.5
    reference energy   = -6.27092
    reference variance = 0.0531779
====================================================
  Execution time = 3.0228e+01
</vmc>
<opt stage="setup">
  <log>
   Reading configurations from h5FileRoot qmc.dump.s003
  QMCCostFunction is created with 21 threads.
  Using Nonlocal PP in Opt: no
   Number of samples loaded to each thread : 48 48 48 48 48 48 48 48 48 48 48 48 48 48 48 48 48 48 48 48 48 
  VMC Eavg = -6.2684e+00
  VMC Evar = 7.7371e-02
  Total weights = 6.4512e+04
  Execution time = 5.9692e+00
  </log>
</opt>
<opt stage="main" walkers="64512">
  <log>

*****************************************
Building overlap and Hamiltonian matrices
*****************************************

Among totally 40 optimized parameters, largest LM parameter change : 1.9534e-02 at parameter 0

******************************************************************************
Init Cost =   7.7371e-02    New Cost =   7.7025e-02  Delta Cost =  -3.4554e-04
******************************************************************************

The new set of parameters is valid. Updating the trial wave function!

*****************************************************************************
Applying the update for shift_i =   1.0000e-02     and shift_s =   3.9062e-03
*****************************************************************************
  Execution time = 3.6214e+01
  </log>
  <optVariables href="qmc.dump.s003.opt.xml">
 uu_0                 1.819564e-01 1 1  ON 0
 uu_1                 6.765431e-02 1 1  ON 1
 uu_2                 1.898797e-02 1 1  ON 2
 uu_3                 1.012310e-03 1 1  ON 3
 uu_4                -1.373450e-02 1 1  ON 4
 uu_5                -2.473199e-02 1 1  ON 5
 uu_6                -3.293123e-02 1 1  ON 6
 uu_7                -3.862801e-02 1 1  ON 7
 uu_8                -4.012105e-02 1 1  ON 8
 uu_9                -4.121283e-02 1 1  ON 9
 ud_0                 1.478008e-01 1 1  ON 10
 ud_1                 2.538542e-02 1 1  ON 11
 ud_2                 4.629482e-03 1 1  ON 12
 ud_3                -5.735791e-03 1 1  ON 13
 ud_4                -2.159679e-02 1 1  ON 14
 ud_5                -2.786569e-02 1 1  ON 15
 ud_6                -3.314872e-02 1 1  ON 16
 ud_7                -3.609310e-02 1 1  ON 17
 ud_8                -3.335697e-02 1 1  ON 18
 ud_9                -3.149577e-02 1 1  ON 19
eSi_0                -8.127961e-02 1 1  ON 20
eSi_1                -2.225045e-02 1 1  ON 21
eSi_2                -1.193236e-02 1 1  ON 22
eSi_3                 9.311350e-03 1 1  ON 23
eSi_4                 1.792209e-02 1 1  ON 24
eSi_5                 1.070930e-02 1 1  ON 25
eSi_6                -9.361819e-03 1 1  ON 26
eSi_7                -1.298646e-02 1 1  ON 27
eSi_8                -2.033604e-03 1 1  ON 28
eSi_9                 2.443797e-02 1 1  ON 29
 eH_0                -8.180590e-02 1 1  ON 30
 eH_1                -7.559335e-02 1 1  ON 31
 eH_2                -6.413931e-02 1 1  ON 32
 eH_3                -5.378767e-02 1 1  ON 33
 eH_4                -4.006583e-02 1 1  ON 34
 eH_5                -2.464199e-02 1 1  ON 35
 eH_6                -7.540189e-03 1 1  ON 36
 eH_7                 6.801202e-03 1 1  ON 37
 eH_8                 1.674496e-02 1 1  ON 38
 eH_9                 2.254779e-02 1 1  ON 39
  </optVariables>
   Restore the number of walkers to 21, removing 0 walkers.
</opt>
</optimization-report>
  QMC Execution time = 36.22 secs

=========================================================
  Start QMCFixedSampleLinearOptimize
  File Root qmc.dump.s004 append = no 
=========================================================
  Skip QMCDriver::putQMCInfo 
  Resetting Properties of the walkers 1 x 14

=========================================================
  Start VMC
  File Root qmc.dump.s004 append = no 
=========================================================
Using existing walkers 
  Resetting Properties of the walkers 1 x 14

<vmc function="put">
  qmc_counter=4  my_counter=0
  time step      = 0.5
  blocks         = 20
  steps          = 3
  substeps       = 4
  current        = 0
  target samples = 6.4e+04
  walkers/mpi    = 21

  stepsbetweensamples = 1
  SpinMoves      = no
<parameter name="blocks" condition="int">20</parameter>
<parameter name="blocks_between_recompute" condition="int">0</parameter>
<parameter name="check_properties" condition="int">100</parameter>
<parameter name="checkproperties" condition="int">100</parameter>
<parameter name="current" condition="int">0</parameter>
<parameter name="dmcwalkersperthread" condition="real">48</parameter>
<parameter name="maxcpusecs" condition="real">3.6e+05</parameter>
<parameter name="record_configs" condition="int">0</parameter>
<parameter name="record_walkers" condition="int">1</parameter>
<parameter name="recordconfigs" condition="int">0</parameter>
<parameter name="recordwalkers" condition="int">1</parameter>
<parameter name="rewind" condition="int">0</parameter>
<parameter name="samples" condition="real">6.4e+04</parameter>
<parameter name="samplesperthread" condition="real">48</parameter>
<parameter name="spinmass" condition="double">1</parameter>
<parameter name="spinmoves" condition="string">no</parameter>
<parameter name="steps" condition="int">3</parameter>
<parameter name="stepsbetweensamples" condition="int">1</parameter>
<parameter name="store_configs" condition="int">0</parameter>
<parameter name="storeconfigs" condition="int">0</parameter>
<parameter name="sub_steps" condition="int">4</parameter>
<parameter name="substeps" condition="int">4</parameter>
<parameter name="tau" condition="au">0.5</parameter>
<parameter name="time_step" condition="au">0.5</parameter>
<parameter name="timestep" condition="au">0.5</parameter>
<parameter name="use_drift" condition="string">no</parameter>
<parameter name="usedrift" condition="string">no</parameter>
<parameter name="walkers" condition="int">1</parameter>
<parameter name="warmup_steps" condition="int">100</parameter>
<parameter name="warmupsteps" condition="int">100</parameter>
  DumpConfig==false Nothing (configurations, state) will be saved.
  Walker Samples are dumped every 1 steps.
</vmc>
    Restarting, cummulative properties:
      energy     = -6.267
      variance   = 0
      r2accepted = 1e-10
      r2proposed = 1e-10
  Set drift_modifier UNR parameter a = 1
 Using QMCCostFunction::QMCCostFunction
  Set drift_modifier UNR parameter a = 1.0000e+00
  EstimatorManagerBase::add replace LocalEnergy estimator.
<optimization-report>
<vmc stage="main" blocks="20">
  Cannot make clones again. Use existing 21 clones
  Initial partition of walkers 0 1 2 3 4 5 6 7 8 9 10 11 12 13 14 15 16 17 18 19 20 21 

  Using Particle by Particle moves
  Walker moves without drift
  Total Sample Size   =64512
  Walker distribution on root = 0 1 2 3 4 5 6 7 8 9 10 11 12 13 14 15 16 17 18 19 20 21 
  Using Locality Approximation
===== Memory Usage after the buffer registration =====
Available memory on node 0, free + buffers : 560394 MB
Memory footprint by rank 0 on node 0       : 702 MB
==================================================
  Anonymous Buffer size per walker : 7492808 Bytes.
MEMORY increase 150 MB VMC::resetRun
====================================================
  SimpleFixedNodeBranch::finalize after a VMC block
    QMC counter        = 4
    time step          = 0.5
    reference energy   = -6.27654
    reference variance = 0.0599371
====================================================
  Execution time = 3.0258e+01
</vmc>
<opt stage="setup">
  <log>
   Reading configurations from h5FileRoot qmc.dump.s004
  QMCCostFunction is created with 21 threads.
  Using Nonlocal PP in Opt: no
   Number of samples loaded to each thread : 48 48 48 48 48 48 48 48 48 48 48 48 48 48 48 48 48 48 48 48 48 
  VMC Eavg = -6.2678e+00
  VMC Evar = 6.7241e-02
  Total weights = 6.4512e+04
  Execution time = 5.9310e+00
  </log>
</opt>
<opt stage="main" walkers="64512">
  <log>

*****************************************
Building overlap and Hamiltonian matrices
*****************************************

Among totally 40 optimized parameters, largest LM parameter change : 2.0070e-02 at parameter 34

******************************************************************************
Init Cost =   6.7241e-02    New Cost =   6.7260e-02  Delta Cost =   1.9285e-05
******************************************************************************

The new set of parameters is valid. Updating the trial wave function!

*****************************************************************************
Applying the update for shift_i =   1.0000e-02     and shift_s =   3.9062e-03
*****************************************************************************
  Execution time = 3.6208e+01
  </log>
  <optVariables href="qmc.dump.s004.opt.xml">
 uu_0                 1.970414e-01 1 1  ON 0
 uu_1                 7.310623e-02 1 1  ON 1
 uu_2                 2.252236e-02 1 1  ON 2
 uu_3                 3.675443e-03 1 1  ON 3
 uu_4                -1.106654e-02 1 1  ON 4
 uu_5                -2.327785e-02 1 1  ON 5
 uu_6                -3.274948e-02 1 1  ON 6
 uu_7                -4.030744e-02 1 1  ON 7
 uu_8                -4.160888e-02 1 1  ON 8
 uu_9                -4.064625e-02 1 1  ON 9
 ud_0                 1.483242e-01 1 1  ON 10
 ud_1                 2.444088e-02 1 1  ON 11
 ud_2                 3.160852e-03 1 1  ON 12
 ud_3                -7.670492e-03 1 1  ON 13
 ud_4                -2.449108e-02 1 1  ON 14
 ud_5                -3.162540e-02 1 1  ON 15
 ud_6                -3.804649e-02 1 1  ON 16
 ud_7                -4.096741e-02 1 1  ON 17
 ud_8                -3.989251e-02 1 1  ON 18
 ud_9                -3.711565e-02 1 1  ON 19
eSi_0                -8.557181e-02 1 1  ON 20
eSi_1                -2.994162e-02 1 1  ON 21
eSi_2                -1.584876e-02 1 1  ON 22
eSi_3                 1.032755e-02 1 1  ON 23
eSi_4                 1.953955e-02 1 1  ON 24
eSi_5                 6.475509e-03 1 1  ON 25
eSi_6                -2.405063e-02 1 1  ON 26
eSi_7                -2.704529e-02 1 1  ON 27
eSi_8                -5.505637e-03 1 1  ON 28
eSi_9                 3.950744e-02 1 1  ON 29
 eH_0                -9.113971e-02 1 1  ON 30
 eH_1                -8.580118e-02 1 1  ON 31
 eH_2                -7.630357e-02 1 1  ON 32
 eH_3                -7.076540e-02 1 1  ON 33
 eH_4                -6.013582e-02 1 1  ON 34
 eH_5                -4.443836e-02 1 1  ON 35
 eH_6                -2.596943e-02 1 1  ON 36
 eH_7                -3.922782e-03 1 1  ON 37
 eH_8                 1.571709e-02 1 1  ON 38
 eH_9                 1.730754e-02 1 1  ON 39
  </optVariables>
   Restore the number of walkers to 21, removing 0 walkers.
</opt>
</optimization-report>
  QMC Execution time = 36.21 secs
Loop execution max-interations = 5
BRANCH resetRun
  Continue with the same input as the previous block.
 SimpleFixedNodeBranch::resetRun detected changes in <parameter>'s 
 BranchMode : 0000001100 0000001100
 iParam (old):                100                 1                 4                 0                 0                 0                 1                 0
 iParam (new):                100                 1                 4                 0                 0                 0                 1                 0
 vParam (old):                0.5               0.1                 1                 1                 1                 1                 1                 1                 1                 0                 0                 1                10                 1                 1                 1                 1
 vParam (new):                0.5               0.1                 1                 1                 1                 1                 1                 1                 1                 0                 0                 1                10                 1                 1                 1                 1

=========================================================
  Start QMCFixedSampleLinearOptimize
  File Root qmc.dump.s005 append = no 
=========================================================
  Skip QMCDriver::putQMCInfo 
  Resetting Properties of the walkers 1 x 14

=========================================================
  Start VMC
  File Root qmc.dump.s005 append = no 
=========================================================
Resetting walkers
  Using the current 21 walkers.
  Total number of walkers: 1344
  Total weight: 1344
  Resetting Properties of the walkers 1 x 14

<vmc function="put">
  qmc_counter=0  my_counter=0
  time step      = 0.5
  blocks         = 20
  steps          = 5
  substeps       = 4
  current        = 0
  target samples = 128000
  walkers/mpi    = 21

  stepsbetweensamples = 1
  SpinMoves      = no
<parameter name="blocks" condition="int">20</parameter>
<parameter name="blocks_between_recompute" condition="int">0</parameter>
<parameter name="check_properties" condition="int">100</parameter>
<parameter name="checkproperties" condition="int">100</parameter>
<parameter name="current" condition="int">0</parameter>
<parameter name="dmcwalkersperthread" condition="real">96</parameter>
<parameter name="maxcpusecs" condition="real">360000</parameter>
<parameter name="record_configs" condition="int">0</parameter>
<parameter name="record_walkers" condition="int">1</parameter>
<parameter name="recordconfigs" condition="int">0</parameter>
<parameter name="recordwalkers" condition="int">1</parameter>
<parameter name="rewind" condition="int">0</parameter>
<parameter name="samples" condition="real">128000</parameter>
<parameter name="samplesperthread" condition="real">96</parameter>
<parameter name="spinmass" condition="double">1</parameter>
<parameter name="spinmoves" condition="string">no</parameter>
<parameter name="steps" condition="int">5</parameter>
<parameter name="stepsbetweensamples" condition="int">1</parameter>
<parameter name="store_configs" condition="int">0</parameter>
<parameter name="storeconfigs" condition="int">0</parameter>
<parameter name="sub_steps" condition="int">4</parameter>
<parameter name="substeps" condition="int">4</parameter>
<parameter name="tau" condition="au">0.5</parameter>
<parameter name="time_step" condition="au">0.5</parameter>
<parameter name="timestep" condition="au">0.5</parameter>
<parameter name="use_drift" condition="string">no</parameter>
<parameter name="usedrift" condition="string">no</parameter>
<parameter name="walkers" condition="int">21</parameter>
<parameter name="warmup_steps" condition="int">100</parameter>
<parameter name="warmupsteps" condition="int">100</parameter>
  DumpConfig==false Nothing (configurations, state) will be saved.
  Walker Samples are dumped every 1 steps.
</vmc>
    Restarting, cummulative properties:
      energy     = -6.268874168
      variance   = 0
      r2accepted = 1e-10
      r2proposed = 1e-10
  Set drift_modifier UNR parameter a = 1
 Using QMCCostFunction::QMCCostFunction
  Set drift_modifier UNR parameter a = 1.0000000000e+00
  EstimatorManagerBase::add replace LocalEnergy estimator.
<optimization-report>
<vmc stage="main" blocks="20">
  Cannot make clones again. Use existing 21 clones
  Initial partition of walkers 0 1 2 3 4 5 6 7 8 9 10 11 12 13 14 15 16 17 18 19 20 21 

  Using Particle by Particle moves
  Walker moves without drift
  Total Sample Size   =129024
  Walker distribution on root = 0 1 2 3 4 5 6 7 8 9 10 11 12 13 14 15 16 17 18 19 20 21 
  Using Locality Approximation
===== Memory Usage after the buffer registration =====
Available memory on node 0, free + buffers : 560393 MB
Memory footprint by rank 0 on node 0       : 702 MB
==================================================
  Anonymous Buffer size per walker : 7492808 Bytes.
MEMORY increase 150 MB VMC::resetRun
====================================================
  SimpleFixedNodeBranch::finalize after a VMC block
    QMC counter        = 5
    time step          = 0.5
    reference energy   = -6.27194
    reference variance = 0.0620562
====================================================
  Execution time = 3.7414e+01
</vmc>
<opt stage="setup">
  <log>
   Reading configurations from h5FileRoot qmc.dump.s005
  QMCCostFunction is created with 21 threads.
  Using Nonlocal PP in Opt: no
   Number of samples loaded to each thread : 96 96 96 96 96 96 96 96 96 96 96 96 96 96 96 96 96 96 96 96 96 
  VMC Eavg = -6.2685e+00
  VMC Evar = 6.8330e-02
  Total weights = 1.2902e+05
  Execution time = 1.1928e+01
  </log>
</opt>
<opt stage="main" walkers="129024">
  <log>

*****************************************
Building overlap and Hamiltonian matrices
*****************************************

Among totally 40 optimized parameters, largest LM parameter change : 1.4246e-02 at parameter 0

******************************************************************************
Init Cost =  -5.0011e+00    New Cost =  -5.0011e+00  Delta Cost =  -4.4671e-05
******************************************************************************

The new set of parameters is valid. Updating the trial wave function!

*****************************************************************************
Applying the update for shift_i =   1.0000e-02     and shift_s =   2.5000e-01
*****************************************************************************
  Execution time = 4.9377e+01
  </log>
  <optVariables href="qmc.dump.s005.opt.xml">
 uu_0                 2.112877e-01 1 1  ON 0
 uu_1                 7.734105e-02 1 1  ON 1
 uu_2                 2.639889e-02 1 1  ON 2
 uu_3                 8.048620e-03 1 1  ON 3
 uu_4                -7.275119e-03 1 1  ON 4
 uu_5                -1.921197e-02 1 1  ON 5
 uu_6                -2.808537e-02 1 1  ON 6
 uu_7                -3.523278e-02 1 1  ON 7
 uu_8                -3.808358e-02 1 1  ON 8
 uu_9                -4.036483e-02 1 1  ON 9
 ud_0                 1.481702e-01 1 1  ON 10
 ud_1                 2.803397e-02 1 1  ON 11
 ud_2                 6.806728e-03 1 1  ON 12
 ud_3                -4.757356e-03 1 1  ON 13
 ud_4                -2.144085e-02 1 1  ON 14
 ud_5                -2.888161e-02 1 1  ON 15
 ud_6                -3.511137e-02 1 1  ON 16
 ud_7                -3.842933e-02 1 1  ON 17
 ud_8                -3.750366e-02 1 1  ON 18
 ud_9                -3.464143e-02 1 1  ON 19
eSi_0                -8.235087e-02 1 1  ON 20
eSi_1                -3.210572e-02 1 1  ON 21
eSi_2                -1.786507e-02 1 1  ON 22
eSi_3                 6.591404e-03 1 1  ON 23
eSi_4                 1.589497e-02 1 1  ON 24
eSi_5                 3.186280e-03 1 1  ON 25
eSi_6                -2.101986e-02 1 1  ON 26
eSi_7                -2.847049e-02 1 1  ON 27
eSi_8                -1.383660e-02 1 1  ON 28
eSi_9                 4.100782e-02 1 1  ON 29
 eH_0                -9.866726e-02 1 1  ON 30
 eH_1                -9.359241e-02 1 1  ON 31
 eH_2                -8.244246e-02 1 1  ON 32
 eH_3                -7.459828e-02 1 1  ON 33
 eH_4                -6.247863e-02 1 1  ON 34
 eH_5                -4.656015e-02 1 1  ON 35
 eH_6                -2.776611e-02 1 1  ON 36
 eH_7                -6.808558e-03 1 1  ON 37
 eH_8                 1.110170e-02 1 1  ON 38
 eH_9                 1.435604e-02 1 1  ON 39
  </optVariables>
   Restore the number of walkers to 21, removing 0 walkers.
</opt>
</optimization-report>
  QMC Execution time = 49.38 secs

=========================================================
  Start QMCFixedSampleLinearOptimize
  File Root qmc.dump.s006 append = no 
=========================================================
  Skip QMCDriver::putQMCInfo 
  Resetting Properties of the walkers 1 x 14

=========================================================
  Start VMC
  File Root qmc.dump.s006 append = no 
=========================================================
Using existing walkers 
  Resetting Properties of the walkers 1 x 14

<vmc function="put">
  qmc_counter=1  my_counter=0
  time step      = 0.5
  blocks         = 20
  steps          = 5
  substeps       = 4
  current        = 0
  target samples = 1.28e+05
  walkers/mpi    = 21

  stepsbetweensamples = 1
  SpinMoves      = no
<parameter name="blocks" condition="int">20</parameter>
<parameter name="blocks_between_recompute" condition="int">0</parameter>
<parameter name="check_properties" condition="int">100</parameter>
<parameter name="checkproperties" condition="int">100</parameter>
<parameter name="current" condition="int">0</parameter>
<parameter name="dmcwalkersperthread" condition="real">96</parameter>
<parameter name="maxcpusecs" condition="real">3.6e+05</parameter>
<parameter name="record_configs" condition="int">0</parameter>
<parameter name="record_walkers" condition="int">1</parameter>
<parameter name="recordconfigs" condition="int">0</parameter>
<parameter name="recordwalkers" condition="int">1</parameter>
<parameter name="rewind" condition="int">0</parameter>
<parameter name="samples" condition="real">1.28e+05</parameter>
<parameter name="samplesperthread" condition="real">96</parameter>
<parameter name="spinmass" condition="double">1</parameter>
<parameter name="spinmoves" condition="string">no</parameter>
<parameter name="steps" condition="int">5</parameter>
<parameter name="stepsbetweensamples" condition="int">1</parameter>
<parameter name="store_configs" condition="int">0</parameter>
<parameter name="storeconfigs" condition="int">0</parameter>
<parameter name="sub_steps" condition="int">4</parameter>
<parameter name="substeps" condition="int">4</parameter>
<parameter name="tau" condition="au">0.5</parameter>
<parameter name="time_step" condition="au">0.5</parameter>
<parameter name="timestep" condition="au">0.5</parameter>
<parameter name="use_drift" condition="string">no</parameter>
<parameter name="usedrift" condition="string">no</parameter>
<parameter name="walkers" condition="int">1</parameter>
<parameter name="warmup_steps" condition="int">100</parameter>
<parameter name="warmupsteps" condition="int">100</parameter>
  DumpConfig==false Nothing (configurations, state) will be saved.
  Walker Samples are dumped every 1 steps.
</vmc>
    Restarting, cummulative properties:
      energy     = -6.269
      variance   = 0
      r2accepted = 1e-10
      r2proposed = 1e-10
  Set drift_modifier UNR parameter a = 1
 Using QMCCostFunction::QMCCostFunction
  Set drift_modifier UNR parameter a = 1.0000e+00
  EstimatorManagerBase::add replace LocalEnergy estimator.
<optimization-report>
<vmc stage="main" blocks="20">
  Cannot make clones again. Use existing 21 clones
  Initial partition of walkers 0 1 2 3 4 5 6 7 8 9 10 11 12 13 14 15 16 17 18 19 20 21 

  Using Particle by Particle moves
  Walker moves without drift
  Total Sample Size   =129024
  Walker distribution on root = 0 1 2 3 4 5 6 7 8 9 10 11 12 13 14 15 16 17 18 19 20 21 
  Using Locality Approximation
===== Memory Usage after the buffer registration =====
Available memory on node 0, free + buffers : 560391 MB
Memory footprint by rank 0 on node 0       : 702 MB
==================================================
  Anonymous Buffer size per walker : 7492808 Bytes.
MEMORY increase 150 MB VMC::resetRun
====================================================
  SimpleFixedNodeBranch::finalize after a VMC block
    QMC counter        = 6
    time step          = 0.5
    reference energy   = -6.26709
    reference variance = 0.0790317
====================================================
  Execution time = 3.7685e+01
</vmc>
<opt stage="setup">
  <log>
   Reading configurations from h5FileRoot qmc.dump.s006
  QMCCostFunction is created with 21 threads.
  Using Nonlocal PP in Opt: no
   Number of samples loaded to each thread : 96 96 96 96 96 96 96 96 96 96 96 96 96 96 96 96 96 96 96 96 96 
  VMC Eavg = -6.2681e+00
  VMC Evar = 7.5359e-02
  Total weights = 1.2902e+05
  Execution time = 1.1582e+01
  </log>
</opt>
<opt stage="main" walkers="129024">
  <log>

*****************************************
Building overlap and Hamiltonian matrices
*****************************************

Among totally 40 optimized parameters, largest LM parameter change : 1.5848e-02 at parameter 10

******************************************************************************
Init Cost =  -4.9994e+00    New Cost =  -4.9995e+00  Delta Cost =  -1.6033e-04
******************************************************************************

The new set of parameters is valid. Updating the trial wave function!

*****************************************************************************
Applying the update for shift_i =   1.0000e-02     and shift_s =   6.2500e-02
*****************************************************************************
  Execution time = 4.9303e+01
  </log>
  <optVariables href="qmc.dump.s006.opt.xml">
 uu_0                 2.241660e-01 1 1  ON 0
 uu_1                 8.366253e-02 1 1  ON 1
 uu_2                 3.147155e-02 1 1  ON 2
 uu_3                 1.176421e-02 1 1  ON 3
 uu_4                -4.336270e-03 1 1  ON 4
 uu_5                -1.678856e-02 1 1  ON 5
 uu_6                -2.597305e-02 1 1  ON 6
 uu_7                -3.212410e-02 1 1  ON 7
 uu_8                -3.383909e-02 1 1  ON 8
 uu_9                -3.466680e-02 1 1  ON 9
 ud_0                 1.640181e-01 1 1  ON 10
 ud_1                 4.008251e-02 1 1  ON 11
 ud_2                 1.705392e-02 1 1  ON 12
 ud_3                 3.541185e-03 1 1  ON 13
 ud_4                -1.413247e-02 1 1  ON 14
 ud_5                -2.236647e-02 1 1  ON 15
 ud_6                -2.992311e-02 1 1  ON 16
 ud_7                -3.436018e-02 1 1  ON 17
 ud_8                -3.505823e-02 1 1  ON 18
 ud_9                -3.331790e-02 1 1  ON 19
eSi_0                -8.601330e-02 1 1  ON 20
eSi_1                -3.281975e-02 1 1  ON 21
eSi_2                -1.941653e-02 1 1  ON 22
eSi_3                 5.198519e-03 1 1  ON 23
eSi_4                 1.571824e-02 1 1  ON 24
eSi_5                 5.535130e-03 1 1  ON 25
eSi_6                -1.882873e-02 1 1  ON 26
eSi_7                -2.896475e-02 1 1  ON 27
eSi_8                -1.544332e-02 1 1  ON 28
eSi_9                 4.041521e-02 1 1  ON 29
 eH_0                -1.060205e-01 1 1  ON 30
 eH_1                -9.980903e-02 1 1  ON 31
 eH_2                -8.726236e-02 1 1  ON 32
 eH_3                -7.706069e-02 1 1  ON 33
 eH_4                -6.276566e-02 1 1  ON 34
 eH_5                -4.459843e-02 1 1  ON 35
 eH_6                -2.516650e-02 1 1  ON 36
 eH_7                -3.741998e-03 1 1  ON 37
 eH_8                 1.120433e-02 1 1  ON 38
 eH_9                 1.669652e-02 1 1  ON 39
  </optVariables>
   Restore the number of walkers to 21, removing 0 walkers.
</opt>
</optimization-report>
  QMC Execution time = 49.3 secs

=========================================================
  Start QMCFixedSampleLinearOptimize
  File Root qmc.dump.s007 append = no 
=========================================================
  Skip QMCDriver::putQMCInfo 
  Resetting Properties of the walkers 1 x 14

=========================================================
  Start VMC
  File Root qmc.dump.s007 append = no 
=========================================================
Using existing walkers 
  Resetting Properties of the walkers 1 x 14

<vmc function="put">
  qmc_counter=2  my_counter=0
  time step      = 0.5
  blocks         = 20
  steps          = 5
  substeps       = 4
  current        = 0
  target samples = 1.28e+05
  walkers/mpi    = 21

  stepsbetweensamples = 1
  SpinMoves      = no
<parameter name="blocks" condition="int">20</parameter>
<parameter name="blocks_between_recompute" condition="int">0</parameter>
<parameter name="check_properties" condition="int">100</parameter>
<parameter name="checkproperties" condition="int">100</parameter>
<parameter name="current" condition="int">0</parameter>
<parameter name="dmcwalkersperthread" condition="real">96</parameter>
<parameter name="maxcpusecs" condition="real">3.6e+05</parameter>
<parameter name="record_configs" condition="int">0</parameter>
<parameter name="record_walkers" condition="int">1</parameter>
<parameter name="recordconfigs" condition="int">0</parameter>
<parameter name="recordwalkers" condition="int">1</parameter>
<parameter name="rewind" condition="int">0</parameter>
<parameter name="samples" condition="real">1.28e+05</parameter>
<parameter name="samplesperthread" condition="real">96</parameter>
<parameter name="spinmass" condition="double">1</parameter>
<parameter name="spinmoves" condition="string">no</parameter>
<parameter name="steps" condition="int">5</parameter>
<parameter name="stepsbetweensamples" condition="int">1</parameter>
<parameter name="store_configs" condition="int">0</parameter>
<parameter name="storeconfigs" condition="int">0</parameter>
<parameter name="sub_steps" condition="int">4</parameter>
<parameter name="substeps" condition="int">4</parameter>
<parameter name="tau" condition="au">0.5</parameter>
<parameter name="time_step" condition="au">0.5</parameter>
<parameter name="timestep" condition="au">0.5</parameter>
<parameter name="use_drift" condition="string">no</parameter>
<parameter name="usedrift" condition="string">no</parameter>
<parameter name="walkers" condition="int">1</parameter>
<parameter name="warmup_steps" condition="int">100</parameter>
<parameter name="warmupsteps" condition="int">100</parameter>
  DumpConfig==false Nothing (configurations, state) will be saved.
  Walker Samples are dumped every 1 steps.
</vmc>
    Restarting, cummulative properties:
      energy     = -6.269
      variance   = 0
      r2accepted = 1e-10
      r2proposed = 1e-10
  Set drift_modifier UNR parameter a = 1
 Using QMCCostFunction::QMCCostFunction
  Set drift_modifier UNR parameter a = 1.0000e+00
  EstimatorManagerBase::add replace LocalEnergy estimator.
<optimization-report>
<vmc stage="main" blocks="20">
  Cannot make clones again. Use existing 21 clones
  Initial partition of walkers 0 1 2 3 4 5 6 7 8 9 10 11 12 13 14 15 16 17 18 19 20 21 

  Using Particle by Particle moves
  Walker moves without drift
  Total Sample Size   =129024
  Walker distribution on root = 0 1 2 3 4 5 6 7 8 9 10 11 12 13 14 15 16 17 18 19 20 21 
  Using Locality Approximation
===== Memory Usage after the buffer registration =====
Available memory on node 0, free + buffers : 560391 MB
Memory footprint by rank 0 on node 0       : 702 MB
==================================================
  Anonymous Buffer size per walker : 7492808 Bytes.
MEMORY increase 150 MB VMC::resetRun
====================================================
  SimpleFixedNodeBranch::finalize after a VMC block
    QMC counter        = 7
    time step          = 0.5
    reference energy   = -6.26783
    reference variance = 0.0527227
====================================================
  Execution time = 3.7555e+01
</vmc>
<opt stage="setup">
  <log>
   Reading configurations from h5FileRoot qmc.dump.s007
  QMCCostFunction is created with 21 threads.
  Using Nonlocal PP in Opt: no
   Number of samples loaded to each thread : 96 96 96 96 96 96 96 96 96 96 96 96 96 96 96 96 96 96 96 96 96 
  VMC Eavg = -6.2688e+00
  VMC Evar = 2.9934e-01
  Total weights = 1.2902e+05
  Execution time = 1.1506e+01
  </log>
</opt>
<opt stage="main" walkers="129024">
  <log>

*****************************************
Building overlap and Hamiltonian matrices
*****************************************

Among totally 40 optimized parameters, largest LM parameter change : 1.9146e-02 at parameter 31

******************************************************************************
Init Cost =  -4.9551e+00    New Cost =  -4.9532e+00  Delta Cost =   1.9459e-03
******************************************************************************

The new set of parameters is valid. Updating the trial wave function!

*****************************************************************************
Applying the update for shift_i =   1.0000e-02     and shift_s =   1.5625e-02
*****************************************************************************
  Execution time = 4.9096e+01
  </log>
  <optVariables href="qmc.dump.s007.opt.xml">
 uu_0                 2.287192e-01 1 1  ON 0
 uu_1                 8.473755e-02 1 1  ON 1
 uu_2                 3.740930e-02 1 1  ON 2
 uu_3                 1.938628e-02 1 1  ON 3
 uu_4                 3.461532e-03 1 1  ON 4
 uu_5                -1.109362e-02 1 1  ON 5
 uu_6                -2.247261e-02 1 1  ON 6
 uu_7                -3.200895e-02 1 1  ON 7
 uu_8                -3.657617e-02 1 1  ON 8
 uu_9                -3.665101e-02 1 1  ON 9
 ud_0                 1.686255e-01 1 1  ON 10
 ud_1                 4.470764e-02 1 1  ON 11
 ud_2                 2.189396e-02 1 1  ON 12
 ud_3                 7.995330e-03 1 1  ON 13
 ud_4                -9.994892e-03 1 1  ON 14
 ud_5                -1.824093e-02 1 1  ON 15
 ud_6                -2.705642e-02 1 1  ON 16
 ud_7                -3.315979e-02 1 1  ON 17
 ud_8                -3.375920e-02 1 1  ON 18
 ud_9                -3.283178e-02 1 1  ON 19
eSi_0                -1.036695e-01 1 1  ON 20
eSi_1                -3.414299e-02 1 1  ON 21
eSi_2                -1.948647e-02 1 1  ON 22
eSi_3                 5.629483e-03 1 1  ON 23
eSi_4                 1.483007e-02 1 1  ON 24
eSi_5                 5.981182e-04 1 1  ON 25
eSi_6                -2.503664e-02 1 1  ON 26
eSi_7                -3.342138e-02 1 1  ON 27
eSi_8                -1.391572e-02 1 1  ON 28
eSi_9                 4.751904e-02 1 1  ON 29
 eH_0                -1.218718e-01 1 1  ON 30
 eH_1                -1.189548e-01 1 1  ON 31
 eH_2                -1.039329e-01 1 1  ON 32
 eH_3                -9.221887e-02 1 1  ON 33
 eH_4                -7.567288e-02 1 1  ON 34
 eH_5                -5.719320e-02 1 1  ON 35
 eH_6                -3.217445e-02 1 1  ON 36
 eH_7                -6.830640e-03 1 1  ON 37
 eH_8                 1.506259e-02 1 1  ON 38
 eH_9                 2.209424e-02 1 1  ON 39
  </optVariables>
   Restore the number of walkers to 21, removing 0 walkers.
</opt>
</optimization-report>
  QMC Execution time = 49.1 secs

=========================================================
  Start QMCFixedSampleLinearOptimize
  File Root qmc.dump.s008 append = no 
=========================================================
  Skip QMCDriver::putQMCInfo 
  Resetting Properties of the walkers 1 x 14

=========================================================
  Start VMC
  File Root qmc.dump.s008 append = no 
=========================================================
Using existing walkers 
  Resetting Properties of the walkers 1 x 14

<vmc function="put">
  qmc_counter=3  my_counter=0
  time step      = 0.5
  blocks         = 20
  steps          = 5
  substeps       = 4
  current        = 0
  target samples = 1.28e+05
  walkers/mpi    = 21

  stepsbetweensamples = 1
  SpinMoves      = no
<parameter name="blocks" condition="int">20</parameter>
<parameter name="blocks_between_recompute" condition="int">0</parameter>
<parameter name="check_properties" condition="int">100</parameter>
<parameter name="checkproperties" condition="int">100</parameter>
<parameter name="current" condition="int">0</parameter>
<parameter name="dmcwalkersperthread" condition="real">96</parameter>
<parameter name="maxcpusecs" condition="real">3.6e+05</parameter>
<parameter name="record_configs" condition="int">0</parameter>
<parameter name="record_walkers" condition="int">1</parameter>
<parameter name="recordconfigs" condition="int">0</parameter>
<parameter name="recordwalkers" condition="int">1</parameter>
<parameter name="rewind" condition="int">0</parameter>
<parameter name="samples" condition="real">1.28e+05</parameter>
<parameter name="samplesperthread" condition="real">96</parameter>
<parameter name="spinmass" condition="double">1</parameter>
<parameter name="spinmoves" condition="string">no</parameter>
<parameter name="steps" condition="int">5</parameter>
<parameter name="stepsbetweensamples" condition="int">1</parameter>
<parameter name="store_configs" condition="int">0</parameter>
<parameter name="storeconfigs" condition="int">0</parameter>
<parameter name="sub_steps" condition="int">4</parameter>
<parameter name="substeps" condition="int">4</parameter>
<parameter name="tau" condition="au">0.5</parameter>
<parameter name="time_step" condition="au">0.5</parameter>
<parameter name="timestep" condition="au">0.5</parameter>
<parameter name="use_drift" condition="string">no</parameter>
<parameter name="usedrift" condition="string">no</parameter>
<parameter name="walkers" condition="int">1</parameter>
<parameter name="warmup_steps" condition="int">100</parameter>
<parameter name="warmupsteps" condition="int">100</parameter>
  DumpConfig==false Nothing (configurations, state) will be saved.
  Walker Samples are dumped every 1 steps.
</vmc>
    Restarting, cummulative properties:
      energy     = -6.269
      variance   = 0
      r2accepted = 1e-10
      r2proposed = 1e-10
  Set drift_modifier UNR parameter a = 1
 Using QMCCostFunction::QMCCostFunction
  Set drift_modifier UNR parameter a = 1.0000e+00
  EstimatorManagerBase::add replace LocalEnergy estimator.
<optimization-report>
<vmc stage="main" blocks="20">
  Cannot make clones again. Use existing 21 clones
  Initial partition of walkers 0 1 2 3 4 5 6 7 8 9 10 11 12 13 14 15 16 17 18 19 20 21 

  Using Particle by Particle moves
  Walker moves without drift
  Total Sample Size   =129024
  Walker distribution on root = 0 1 2 3 4 5 6 7 8 9 10 11 12 13 14 15 16 17 18 19 20 21 
  Using Locality Approximation
===== Memory Usage after the buffer registration =====
Available memory on node 0, free + buffers : 560391 MB
Memory footprint by rank 0 on node 0       : 702 MB
==================================================
  Anonymous Buffer size per walker : 7492808 Bytes.
MEMORY increase 150 MB VMC::resetRun
====================================================
  SimpleFixedNodeBranch::finalize after a VMC block
    QMC counter        = 8
    time step          = 0.5
    reference energy   = -6.26876
    reference variance = 0.0577681
====================================================
  Execution time = 3.7375e+01
</vmc>
<opt stage="setup">
  <log>
   Reading configurations from h5FileRoot qmc.dump.s008
  QMCCostFunction is created with 21 threads.
  Using Nonlocal PP in Opt: no
   Number of samples loaded to each thread : 96 96 96 96 96 96 96 96 96 96 96 96 96 96 96 96 96 96 96 96 96 
  VMC Eavg = -6.2694e+00
  VMC Evar = 6.2940e-02
  Total weights = 1.2902e+05
  Execution time = 1.1684e+01
  </log>
</opt>
<opt stage="main" walkers="129024">
  <log>

*****************************************
Building overlap and Hamiltonian matrices
*****************************************

Among totally 40 optimized parameters, largest LM parameter change : 1.1342e-02 at parameter 20

******************************************************************************
Init Cost =  -5.0029e+00    New Cost =  -5.0031e+00  Delta Cost =  -1.4883e-04
******************************************************************************

The new set of parameters is valid. Updating the trial wave function!

*****************************************************************************
Applying the update for shift_i =   1.0000e-02     and shift_s =   3.9062e-03
*****************************************************************************
  Execution time = 4.9093e+01
  </log>
  <optVariables href="qmc.dump.s008.opt.xml">
 uu_0                 2.343722e-01 1 1  ON 0
 uu_1                 8.775563e-02 1 1  ON 1
 uu_2                 3.919032e-02 1 1  ON 2
 uu_3                 2.052318e-02 1 1  ON 3
 uu_4                 5.720746e-03 1 1  ON 4
 uu_5                -6.676976e-03 1 1  ON 5
 uu_6                -1.610629e-02 1 1  ON 6
 uu_7                -2.425325e-02 1 1  ON 7
 uu_8                -2.815086e-02 1 1  ON 8
 uu_9                -3.125028e-02 1 1  ON 9
 ud_0                 1.739364e-01 1 1  ON 10
 ud_1                 4.876976e-02 1 1  ON 11
 ud_2                 2.740482e-02 1 1  ON 12
 ud_3                 1.393848e-02 1 1  ON 13
 ud_4                -3.923269e-03 1 1  ON 14
 ud_5                -1.250314e-02 1 1  ON 15
 ud_6                -2.109245e-02 1 1  ON 16
 ud_7                -2.610945e-02 1 1  ON 17
 ud_8                -2.968055e-02 1 1  ON 18
 ud_9                -3.170173e-02 1 1  ON 19
eSi_0                -9.232773e-02 1 1  ON 20
eSi_1                -3.246334e-02 1 1  ON 21
eSi_2                -2.173685e-02 1 1  ON 22
eSi_3                 1.961332e-03 1 1  ON 23
eSi_4                 9.625788e-03 1 1  ON 24
eSi_5                -8.861271e-04 1 1  ON 25
eSi_6                -2.618668e-02 1 1  ON 26
eSi_7                -3.649587e-02 1 1  ON 27
eSi_8                -2.195983e-02 1 1  ON 28
eSi_9                 4.973301e-02 1 1  ON 29
 eH_0                -1.209102e-01 1 1  ON 30
 eH_1                -1.151187e-01 1 1  ON 31
 eH_2                -1.029308e-01 1 1  ON 32
 eH_3                -9.079174e-02 1 1  ON 33
 eH_4                -7.515031e-02 1 1  ON 34
 eH_5                -5.617702e-02 1 1  ON 35
 eH_6                -3.506921e-02 1 1  ON 36
 eH_7                -1.249578e-02 1 1  ON 37
 eH_8                 5.335358e-03 1 1  ON 38
 eH_9                 1.391756e-02 1 1  ON 39
  </optVariables>
   Restore the number of walkers to 21, removing 0 walkers.
</opt>
</optimization-report>
  QMC Execution time = 49.09 secs

=========================================================
  Start QMCFixedSampleLinearOptimize
  File Root qmc.dump.s009 append = no 
=========================================================
  Skip QMCDriver::putQMCInfo 
  Resetting Properties of the walkers 1 x 14

=========================================================
  Start VMC
  File Root qmc.dump.s009 append = no 
=========================================================
Using existing walkers 
  Resetting Properties of the walkers 1 x 14

<vmc function="put">
  qmc_counter=4  my_counter=0
  time step      = 0.5
  blocks         = 20
  steps          = 5
  substeps       = 4
  current        = 0
  target samples = 1.28e+05
  walkers/mpi    = 21

  stepsbetweensamples = 1
  SpinMoves      = no
<parameter name="blocks" condition="int">20</parameter>
<parameter name="blocks_between_recompute" condition="int">0</parameter>
<parameter name="check_properties" condition="int">100</parameter>
<parameter name="checkproperties" condition="int">100</parameter>
<parameter name="current" condition="int">0</parameter>
<parameter name="dmcwalkersperthread" condition="real">96</parameter>
<parameter name="maxcpusecs" condition="real">3.6e+05</parameter>
<parameter name="record_configs" condition="int">0</parameter>
<parameter name="record_walkers" condition="int">1</parameter>
<parameter name="recordconfigs" condition="int">0</parameter>
<parameter name="recordwalkers" condition="int">1</parameter>
<parameter name="rewind" condition="int">0</parameter>
<parameter name="samples" condition="real">1.28e+05</parameter>
<parameter name="samplesperthread" condition="real">96</parameter>
<parameter name="spinmass" condition="double">1</parameter>
<parameter name="spinmoves" condition="string">no</parameter>
<parameter name="steps" condition="int">5</parameter>
<parameter name="stepsbetweensamples" condition="int">1</parameter>
<parameter name="store_configs" condition="int">0</parameter>
<parameter name="storeconfigs" condition="int">0</parameter>
<parameter name="sub_steps" condition="int">4</parameter>
<parameter name="substeps" condition="int">4</parameter>
<parameter name="tau" condition="au">0.5</parameter>
<parameter name="time_step" condition="au">0.5</parameter>
<parameter name="timestep" condition="au">0.5</parameter>
<parameter name="use_drift" condition="string">no</parameter>
<parameter name="usedrift" condition="string">no</parameter>
<parameter name="walkers" condition="int">1</parameter>
<parameter name="warmup_steps" condition="int">100</parameter>
<parameter name="warmupsteps" condition="int">100</parameter>
  DumpConfig==false Nothing (configurations, state) will be saved.
  Walker Samples are dumped every 1 steps.
</vmc>
    Restarting, cummulative properties:
      energy     = -6.269
      variance   = 0
      r2accepted = 1e-10
      r2proposed = 1e-10
  Set drift_modifier UNR parameter a = 1
 Using QMCCostFunction::QMCCostFunction
  Set drift_modifier UNR parameter a = 1.0000e+00
  EstimatorManagerBase::add replace LocalEnergy estimator.
<optimization-report>
<vmc stage="main" blocks="20">
  Cannot make clones again. Use existing 21 clones
  Initial partition of walkers 0 1 2 3 4 5 6 7 8 9 10 11 12 13 14 15 16 17 18 19 20 21 

  Using Particle by Particle moves
  Walker moves without drift
  Total Sample Size   =129024
  Walker distribution on root = 0 1 2 3 4 5 6 7 8 9 10 11 12 13 14 15 16 17 18 19 20 21 
  Using Locality Approximation
===== Memory Usage after the buffer registration =====
Available memory on node 0, free + buffers : 560391 MB
Memory footprint by rank 0 on node 0       : 702 MB
==================================================
  Anonymous Buffer size per walker : 7492808 Bytes.
MEMORY increase 150 MB VMC::resetRun
====================================================
  SimpleFixedNodeBranch::finalize after a VMC block
    QMC counter        = 9
    time step          = 0.5
    reference energy   = -6.27013
    reference variance = 0.0539123
====================================================
  Execution time = 3.7527e+01
</vmc>
<opt stage="setup">
  <log>
   Reading configurations from h5FileRoot qmc.dump.s009
  QMCCostFunction is created with 21 threads.
  Using Nonlocal PP in Opt: no
   Number of samples loaded to each thread : 96 96 96 96 96 96 96 96 96 96 96 96 96 96 96 96 96 96 96 96 96 
  VMC Eavg = -6.2694e+00
  VMC Evar = 8.1120e-02
  Total weights = 1.2902e+05
  Execution time = 1.1859e+01
  </log>
</opt>
<opt stage="main" walkers="129024">
  <log>

*****************************************
Building overlap and Hamiltonian matrices
*****************************************

Among totally 40 optimized parameters, largest LM parameter change : 3.4176e+03 at parameter 20

******************************************************************************
Init Cost =  -4.9993e+00    New Cost =   1.7155e+01  Delta Cost =   2.2155e+01
******************************************************************************

The new set of parameters is not valid. Revert to the old set!

*****************************************************************************
Applying the update for shift_i =   1.0000e-02     and shift_s =   1.5625e-02
*****************************************************************************
  Execution time = 4.9422e+01
  </log>
  <optVariables href="qmc.dump.s009.opt.xml">
 uu_0                 2.343722e-01 1 1  ON 0
 uu_1                 8.775563e-02 1 1  ON 1
 uu_2                 3.919032e-02 1 1  ON 2
 uu_3                 2.052318e-02 1 1  ON 3
 uu_4                 5.720746e-03 1 1  ON 4
 uu_5                -6.676976e-03 1 1  ON 5
 uu_6                -1.610629e-02 1 1  ON 6
 uu_7                -2.425325e-02 1 1  ON 7
 uu_8                -2.815086e-02 1 1  ON 8
 uu_9                -3.125028e-02 1 1  ON 9
 ud_0                 1.739364e-01 1 1  ON 10
 ud_1                 4.876976e-02 1 1  ON 11
 ud_2                 2.740482e-02 1 1  ON 12
 ud_3                 1.393848e-02 1 1  ON 13
 ud_4                -3.923269e-03 1 1  ON 14
 ud_5                -1.250314e-02 1 1  ON 15
 ud_6                -2.109245e-02 1 1  ON 16
 ud_7                -2.610945e-02 1 1  ON 17
 ud_8                -2.968055e-02 1 1  ON 18
 ud_9                -3.170173e-02 1 1  ON 19
eSi_0                -9.232773e-02 1 1  ON 20
eSi_1                -3.246334e-02 1 1  ON 21
eSi_2                -2.173685e-02 1 1  ON 22
eSi_3                 1.961332e-03 1 1  ON 23
eSi_4                 9.625788e-03 1 1  ON 24
eSi_5                -8.861271e-04 1 1  ON 25
eSi_6                -2.618668e-02 1 1  ON 26
eSi_7                -3.649587e-02 1 1  ON 27
eSi_8                -2.195983e-02 1 1  ON 28
eSi_9                 4.973301e-02 1 1  ON 29
 eH_0                -1.209102e-01 1 1  ON 30
 eH_1                -1.151187e-01 1 1  ON 31
 eH_2                -1.029308e-01 1 1  ON 32
 eH_3                -9.079174e-02 1 1  ON 33
 eH_4                -7.515031e-02 1 1  ON 34
 eH_5                -5.617702e-02 1 1  ON 35
 eH_6                -3.506921e-02 1 1  ON 36
 eH_7                -1.249578e-02 1 1  ON 37
 eH_8                 5.335358e-03 1 1  ON 38
 eH_9                 1.391756e-02 1 1  ON 39
  </optVariables>
   Restore the number of walkers to 21, removing 0 walkers.
</opt>
</optimization-report>
  QMC Execution time = 49.43 secs
  Total Execution time = 426.3 secs

=========================================================
  A new xml input file : qmc.dump.s009.cont.xml
