
 Primary working directories    : /global/cscratch1/sd/aannabe
 Secondary working directories  : /global/cscratch1/sd/aannabe
 Wavefunction directory         : /global/homes/a/aannabe/wfu/
 Main file repository           : /global/cscratch1/sd/aannabe/

 SHA1      : 19cd028119e0e09f93f0674bd8af7968d9b3eff6
 NAME      : 2015.1.36
 ARCHNAME  : linux/x86_64
 FC        : /opt/cray/pe/craype/2.5.14/bin/ftn
 BLASLIB   : -L/opt/intel/compilers_and_libraries_2018.1.163/linux/mkl/lib/intel64 -Wl,-_start-group -lmkl_intel_ilp64 -lmkl_intel_thread -lmkl_core -Wl,-_end-group -liomp5
 id        : lbl

 Nodes     nprocs
 nid00883     1

 Using customized tuning parameters: mindgm=7; mindgv=16; mindgc=1; mindgr=1; noblas=0; minvec=7
 default implementation of scratch files=df  

 ***,SiH4
 memory,8,g
 gthresh,twoint=1.0E-13
 symmetry,nosym
 
 basis={
 ECP,Si,10,2,0;
 3;                                                                              !Vd
 1,5.168316,    4.000000
 3,8.861690,   20.673264
 2,3.933474,  -14.818174
 2;                                                                              !Vs-Vd
 2,9.447023,   14.832760
 2,2.553812,   26.349664
 2;                                                                              !Vp-Vd
 2,3.660001,    7.621400
 2,1.903653,   10.331583
 
 Including file /global/cscratch1/sd/aannabe/docs/molecules_Si/SiH4/triplet_rccsd_t/Si.aug-cc-pV6Z.basis
 
 ECP,H,0,1,0
 3;
 2,   21.77696655044365 ,     -10.85192405303825 ;
 1,   21.24359508259891 ,       1.00000000000000;
 3,   21.24359508259891 ,      21.24359508259891;
 1; 2,                   1.,                      0.;
 
 Including file /global/cscratch1/sd/aannabe/docs/molecules_Si/SiH4/triplet_rccsd_t/H.aug-cc-pV6Z.basis
 }
 
 geometry={
  5
 Silane
 Si          0.0000        0.0000        0.0000
 H           0.8544        0.8544        0.8544
 H          -0.8544       -0.8544        0.8544
 H          -0.8544        0.8544       -0.8544
 H           0.8544       -0.8544       -0.8544
 }
 
 {rhf,maxdis=30,iptyp='KAIN',nitord=40; shift,-0.02,-0.01
 wf,charge=0,spin=2,symmetry=1
 }
 
 scf=energy
 pop;
 
 {rccsd(t);maxit,100;core}
 ccsd=energy
 
 table,scf,ccsd
 save, 6.csv, new
 

 Variables initialized (889), CPU time= 0.00 sec
 Commands  initialized (702), CPU time= 0.00 sec, 572 directives.
 Default parameters read. Elapsed time= 0.17 sec

 Checking input...
 Passed
1


                                         ***  PROGRAM SYSTEM MOLPRO  ***
                                       Copyright, TTI GmbH Stuttgart, 2015
                                    Version 2015.1 linked Dec 29 2018 15:55:43


 **********************************************************************************************************************************
 LABEL *   SiH4                                                                          
  64 bit serial version                                                                  DATE: 06-Jun-20          TIME: 17:17:34  
 **********************************************************************************************************************************

 SHA1:             19cd028119e0e09f93f0674bd8af7968d9b3eff6
 **********************************************************************************************************************************

 THRESHOLDS:

 ZERO    =  1.00D-12  ONEINT  =  1.00D-12  TWOINT  =  1.00D-13  PREFAC  =  1.00D-14  LOCALI  =  1.00D-09  EORDER  =  1.00D-04
 ENERGY  =  0.00D+00  ETEST   =  0.00D+00  EDENS   =  0.00D+00  THRDEDEF=  1.00D-06  GRADIENT=  1.00D-02  STEP    =  1.00D-03
 ORBITAL =  1.00D-05  CIVEC   =  1.00D-05  COEFF   =  1.00D-04  PRINTCI =  5.00D-02  PUNCHCI =  9.90D+01  OPTGRAD =  3.00D-04
 OPTENERG=  1.00D-06  OPTSTEP =  3.00D-04  THRGRAD =  1.00D-10  COMPRESS=  1.00D-11  VARMIN  =  1.00D-07  VARMAX  =  1.00D-03
 THRDOUB =  0.00D+00  THRDIV  =  1.00D-05  THRRED  =  1.00D-07  THRPSP  =  1.00D+00  THRDC   =  1.00D-10  THRCS   =  1.00D-10
 THRNRM  =  1.00D-08  THREQ   =  0.00D+00  THRDE   =  1.00D+00  THRREF  =  1.00D-05  SPARFAC =  1.00D+00  THRDLP  =  1.00D-07
 THRDIA  =  1.00D-10  THRDLS  =  1.00D-07  THRGPS  =  0.00D+00  THRKEX  =  0.00D+00  THRDIS  =  2.00D-01  THRVAR  =  1.00D-10
 THRLOC  =  1.00D-06  THRGAP  =  1.00D-06  THRLOCT = -1.00D+00  THRGAPT = -1.00D+00  THRORB  =  1.00D-06  THRMLTP =  0.00D+00
 THRCPQCI=  1.00D-10  KEXTA   =  0.00D+00  THRCOARS=  0.00D+00  SYMTOL  =  1.00D-06  GRADTOL =  1.00D-06  THROVL  =  1.00D-08
 THRORTH =  1.00D-08  GRID    =  1.00D-06  GRIDMAX =  1.00D-03  DTMAX   =  0.00D+00  THROCCDE=  1.00D-01  THROCCDE=  1.00D-01



 Variable memory set to 8000000000 words,  buffer space   230000 words

 SETTING BASIS          =    USERDEF
 ZSYMEL=NOSYM
 

Geometry recognized as XYZ



 Recomputing integrals since basis changed


 Using spherical harmonics



 PROGRAM * SEWARD (Integral evaluation for generally contracted gaussian basis sets)     Author: Roland Lindh, 1990

 Geometry written to block  1 of record 700


 Point group  C1  



 ATOMIC COORDINATES

 NR  ATOM    CHARGE       X              Y              Z

   1  SI      4.00    0.000000000    0.000000000    0.000000000
   2  H       1.00    1.614582001    1.614582001    1.614582001
   3  H       1.00   -1.614582001   -1.614582001    1.614582001
   4  H       1.00   -1.614582001    1.614582001   -1.614582001
   5  H       1.00    1.614582001   -1.614582001   -1.614582001

 Bond lengths in Bohr (Angstrom)

 1-2  2.796538058  1-3  2.796538058  1-4  2.796538058  1-5  2.796538058
     ( 1.479864210)     ( 1.479864210)     ( 1.479864210)     ( 1.479864210)

 Bond angles

  2-1-3  109.47122063   2-1-4  109.47122063   2-1-5  109.47122063   3-1-4  109.47122063

  3-1-5  109.47122063   4-1-5  109.47122063

 NUCLEAR CHARGE:                    8
 NUMBER OF PRIMITIVE AOS:        1085
 NUMBER OF SYMMETRY AOS:          760
 NUMBER OF CONTRACTIONS:          696   ( 696A   )
 NUMBER OF CORE ORBITALS:           0   (   0A   )
 NUMBER OF VALENCE ORBITALS:        8   (   8A   )


 NUCLEAR REPULSION ENERGY    7.03521075


 Eigenvalues of metric

         1 0.693E-06 0.159E-05 0.159E-05 0.159E-05 0.412E-05 0.596E-05 0.596E-05 0.596E-05


 Contracted 2-electron integrals neglected if value below      1.0D-13
 AO integral compression algorithm  1   Integral accuracy      1.0D-13

     129692.860 MB (compressed) written to integral file ( 49.6%)


 NUMBER OF SORTED TWO-ELECTRON INTEGRALS:29416827846.     BUFFER LENGTH:  32768
 NUMBER OF SEGMENTS: 184  SEGMENT LENGTH:  159999781      RECORD LENGTH: 524288

 Memory used in sort:     160.56 MW

 SORT1 READ 32697296788. AND WROTE 25285863816. INTEGRALS IN  72440 RECORDS. CPU TIME:   279.23 SEC, REAL TIME:   601.02 SEC
 SORT2 READ 25285863816. AND WROTE 29416827846. INTEGRALS IN 494739 RECORDS. CPU TIME:   350.19 SEC, REAL TIME:  1039.82 SEC

 FILE SIZES:   FILE 1:129732.5 MBYTE,  FILE 4:303835.4 MBYTE,   TOTAL: 433567.9 MBYTE

 OPERATOR DM      FOR CENTER  0  COORDINATES:    0.000000    0.000000    0.000000


 **********************************************************************************************************************************
 DATASETS  * FILE   NREC   LENGTH (MB)   RECORD NAMES
              1      20   117687.20       500      610      700      900      950      970     1000      129      960     1100   
                                          VAR    BASINP    GEOM    SYMINP    ZMAT    AOBASIS   BASIS     P2S    ABASIS      S 
                                         1400     1410     1420     1200     1210     1080     1600     1650     1300     1700   
                                           T        V       ECP      H0       H01     AOSYM     SMH    MOLCAS    ERIS     OPER   

 PROGRAMS   *        TOTAL       INT
 CPU TIMES  *      3806.34   3806.26
 REAL TIME  *      4934.60 SEC
 DISK USED  *       433.57 GB      
 **********************************************************************************************************************************


 PROGRAM * RHF-SCF (OPEN SHELL)       Authors: W. Meyer, H.-J. Werner


 NUMBER OF ELECTRONS:       5+    3-    SPACE SYMMETRY=1    SPIN SYMMETRY: Triplet 
 CONVERGENCE THRESHOLDS:    1.00E-05 (Density)    1.00E-07 (Energy)
 MAX. NUMBER OF ITERATIONS:       60
 INTERPOLATION TYPE:            KAIN
 INTERPOLATION STEPS:              2 (START)      1 (STEP)
 LEVEL SHIFTS:                 -0.02 (CLOSED) -0.01 (OPEN) 



 Orbital guess generated from atomic densities. Full valence occupancy:    4

 Molecular orbital dump at record        2100.2

 Initial alpha occupancy:   5
 Initial beta  occupancy:   3
 Wave function symmetry:    1

 ITERATION    DDIFF          GRAD             ENERGY        2-EL.EN.            DIPOLE MOMENTS         DIIS   ORB.
    1      0.000D+00      0.000D+00        -5.68824244     14.959652    0.39783   -0.95064   -0.46894    0    start
    2      0.000D+00      0.299D-02        -5.74776117     15.784293   -0.14881    0.10236    0.13725    1    diag,B
    3      0.476D+00      0.905D-03        -5.75778512     15.878845   -0.13355    0.27868    0.14647    2    diag,B
    4      0.125D+00      0.561D-03        -5.76541055     15.989882   -0.43757    0.56586    0.44249    3    diag,B
    5      0.623D-01      0.396D-03        -5.77146923     16.061219   -0.79038    0.78983    0.78601    4    diag,B
    6      0.162D-01      0.276D-03        -5.77255398     16.067259   -0.82903    0.79114    0.82135    5    diag,B
    7      0.559D-02      0.121D-03        -5.77288448     16.124870   -0.98958    0.84622    0.98047    6    diag,B
    8      0.767D-02      0.157D-03        -5.77312444     16.112396   -0.91034    0.79989    0.89817    7    diag,B
    9      0.141D-02      0.394D-04        -5.77320666     16.133820   -0.86348    0.75166    0.85160    8    diag,B
   10      0.146D-02      0.488D-04        -5.77333149     16.195912   -0.76886    0.66283    0.75963    9    orth
   11      0.233D-02      0.234D-04        -5.77335462     16.222587   -0.68145    0.61065    0.67520   10    diag,B
   12      0.328D-03      0.879D-05        -5.77335665     16.225831   -0.66596    0.60990    0.66096   11    diag,B
   13      0.161D-03      0.453D-05        -5.77335770     16.225441   -0.66247    0.61749    0.65826   12    diag,B
   14      0.618D-04      0.388D-05        -5.77335891     16.225909   -0.65322    0.62151    0.64986   13    diag,B
   15      0.610D-04      0.403D-05        -5.77336053     16.224529   -0.65212    0.63530    0.64992   14    diag,B
   16      0.104D-03      0.392D-05        -5.77336149     16.223140   -0.64880    0.64264    0.64765   15    diag,B
   17      0.832D-04      0.225D-05        -5.77336165     16.223099   -0.64898    0.64708    0.64852   16    diag,B
   18      0.561D-04      0.721D-06        -5.77336167     16.222910   -0.64982    0.64901    0.64964   17    diag,B
   19      0.160D-04      0.368D-06        -5.77336167     16.223143   -0.64956    0.64938    0.64954   18    diag,B
   20      0.164D-04      0.952D-07        -5.77336167     16.223103   -0.64964    0.64961    0.64964   19    orth
   21      0.154D-05      0.350D-07        -5.77336167     16.223099   -0.64964    0.64963    0.64963    0    orth

 Final alpha occupancy:   5
 Final beta  occupancy:   3

 !RHF STATE 1.1 Energy                 -5.773361673695
 Nuclear energy                         7.03521075
 One-electron energy                  -20.92012175
 Two-electron energy                    8.11154933
 Virial quotient                       -1.54344796
 !RHF STATE 1.1 Dipole moment          -0.64964090     0.64962635     0.64963483
 Dipole moment /Debye                  -1.65111433     1.65107733     1.65109889

 Orbital energies:

         1.1          2.1          3.1          4.1          5.1          6.1          7.1
     -0.795211    -0.552080    -0.552080    -0.763047    -0.135232     0.016802     0.025747

 HOMO      5.1    -0.135232 =      -3.6799eV
 LUMO      6.1     0.016802 =       0.4572eV
 LUMO-HOMO         0.152034 =       4.1371eV


 **********************************************************************************************************************************
 DATASETS  * FILE   NREC   LENGTH (MB)   RECORD NAMES
              1      20   117687.20       500      610      700      900      950      970     1000      129      960     1100   
                                          VAR    BASINP    GEOM    SYMINP    ZMAT    AOBASIS   BASIS     P2S    ABASIS      S 
                                         1400     1410     1420     1200     1210     1080     1600     1650     1300     1700   
                                           T        V       ECP      H0       H01     AOSYM     SMH    MOLCAS    ERIS     OPER   

              2       4       16.54       700     1000      520     2100   
                                         GEOM     BASIS   MCVARS     RHF  

 PROGRAMS   *        TOTAL       RHF       INT
 CPU TIMES  *     10850.24   7043.90   3806.26
 REAL TIME  *     13356.03 SEC
 DISK USED  *       433.57 GB      
 **********************************************************************************************************************************
 SETTING SCF            =        -5.77336167  AU                              


 PROGRAM * POP (Mulliken population analysis)

 
 Density matrix read from record         2100.2  Type=RHF/CHARGE (state 1.1)
 
 Population analysis by basis function type

 Unique atom        s        p        d        f        g    Total    Charge
   1  SI      0.53268  2.13296  0.20703  0.05622  0.00751  2.93748  + 1.06252
   2  H       0.95037  0.04537 -0.00050 -0.00022  0.00005  0.99507  + 0.00493
   3  H       0.95036  0.04538 -0.00050 -0.00022  0.00005  0.99506  + 0.00494
   4  H       0.95037  0.04537 -0.00050 -0.00022  0.00005  0.99507  + 0.00493
   5  H       2.05320  0.02076  0.00256  0.00064  0.00016  2.07732  - 1.07732


 **********************************************************************************************************************************
 DATASETS  * FILE   NREC   LENGTH (MB)   RECORD NAMES
              1      20   117687.20       500      610      700      900      950      970     1000      129      960     1100   
                                          VAR    BASINP    GEOM    SYMINP    ZMAT    AOBASIS   BASIS     P2S    ABASIS      S 
                                         1400     1410     1420     1200     1210     1080     1600     1650     1300     1700   
                                           T        V       ECP      H0       H01     AOSYM     SMH    MOLCAS    ERIS     OPER   

              2       4       16.54       700     1000      520     2100   
                                         GEOM     BASIS   MCVARS     RHF  

 PROGRAMS   *        TOTAL       POP       RHF       INT
 CPU TIMES  *     10850.25      0.00   7043.90   3806.26
 REAL TIME  *     13356.09 SEC
 DISK USED  *       433.57 GB      
 **********************************************************************************************************************************


 PROGRAM * CCSD (Restricted open-shell coupled cluster)     Authors: C. Hampel, H.-J. Werner, 1991, M. Deegan, P.J. Knowles, 1992


 Convergence thresholds:  THRVAR = 1.00D-08  THRDEN = 1.00D-06

 CCSD(T)     terms to be evaluated (factor= 1.000)


 Number of closed-shell orbitals:   3 (   3 )
 Number of active  orbitals:        2 (   2 )
 Number of external orbitals:     691 ( 691 )

 Memory could be reduced to 3694.72 Mwords without degradation in triples

 Number of N-1 electron functions:               8
 Number of N-2 electron functions:              28
 Number of singly external CSFs:              5544
 Number of doubly external CSFs:          10320849
 Total number of CSFs:                    10326393

 Molecular orbitals read from record     2100.2  Type=RHF/CANONICAL (state 1.1)

 Integral transformation finished. Total CPU: 779.09 sec, npass=  1  Memory used:1035.31 MW

 Starting RMP2 calculation

 Wavefunction is spin-projected

 ITER.      SQ.NORM     CORR.ENERGY   TOTAL ENERGY   ENERGY CHANGE        DEN1      VAR(S)    VAR(P)  DIIS     TIME
   1      1.06053710    -0.14387196    -5.91723364    -0.14387196    -0.00111832  0.14D-04  0.59D-03  1  1   780.70
   2      1.06213830    -0.14513472    -5.91849639    -0.00126276    -0.00000492  0.30D-06  0.31D-05  2  2   782.03
   3      1.06221547    -0.14516684    -5.91852851    -0.00003212    -0.00000005  0.84D-08  0.32D-07  3  3   783.41
   4      1.06221836    -0.14516738    -5.91852906    -0.00000055    -0.00000000  0.44D-09  0.56D-09  4  4   784.84

 Norm of t1 vector:      0.02506710      S-energy:    -0.00085119      T1 diagnostic:  0.00095477
 Norm of t2 vector:      0.24817333      P-energy:    -0.14431620
                                         Alpha-Beta:  -0.12399156
                                         Alpha-Alpha: -0.01609012
                                         Beta-Beta:   -0.00423452

 Spin contamination <S**2-Sz**2-Sz>     0.00000000
  Reference energy                     -5.773361673695
  RHF-RMP2 correlation energy          -0.145167383987
 !RHF-RMP2 energy                      -5.918529057682
 (NB above energy spin projected)

 Starting RCCSD calculation

 ITER.      SQ.NORM     CORR.ENERGY   TOTAL ENERGY   ENERGY CHANGE        DEN1      VAR(S)    VAR(P)  DIIS     TIME
   1      1.07801752    -0.15573908    -5.92910076    -0.15573908    -0.00893464  0.20D-02  0.33D-02  1  1  1387.57
   2      1.09877001    -0.16617076    -5.93953244    -0.01043168    -0.00113194  0.10D-02  0.33D-03  2  2  1998.15
   3      1.11350473    -0.16933079    -5.94269246    -0.00316003    -0.00042071  0.72D-03  0.72D-04  3  3  2605.70
   4      1.12978754    -0.17068795    -5.94404962    -0.00135716    -0.00022325  0.45D-03  0.40D-04  4  4  3207.91
   5      1.15456114    -0.17178600    -5.94514767    -0.00109805    -0.00012795  0.30D-03  0.19D-04  5  5  3808.77
   6      1.18341028    -0.17262190    -5.94598357    -0.00083590    -0.00008459  0.20D-03  0.11D-04  6  6  4412.23
   7      1.21550035    -0.17313810    -5.94649977    -0.00051620    -0.00005710  0.13D-03  0.74D-05  6  1  5014.17
   8      1.26204537    -0.17371722    -5.94707890    -0.00057912    -0.00003601  0.75D-04  0.62D-05  6  2  5616.53
   9      1.32603602    -0.17434641    -5.94770808    -0.00062918    -0.00001778  0.30D-04  0.57D-05  6  3  6218.90
  10      1.37278883    -0.17462932    -5.94799100    -0.00028292    -0.00000663  0.79D-05  0.33D-05  6  4  6818.84
  11      1.40478056    -0.17482614    -5.94818782    -0.00019682    -0.00000213  0.14D-05  0.14D-05  6  5  7418.73
  12      1.41707500    -0.17488238    -5.94824405    -0.00005624    -0.00000054  0.14D-06  0.41D-06  6  6  8017.85
  13      1.42262022    -0.17491806    -5.94827974    -0.00003568    -0.00000016  0.62D-07  0.13D-06  6  1  8617.19
  14      1.42398189    -0.17492341    -5.94828509    -0.00000535    -0.00000006  0.40D-07  0.45D-07  6  2  9217.85
  15      1.42493718    -0.17492582    -5.94828749    -0.00000240    -0.00000002  0.17D-07  0.18D-07  6  3  9817.12
  16      1.42435774    -0.17491814    -5.94827982     0.00000767    -0.00000001  0.35D-08  0.48D-08  6  5 10415.09
  17      1.42425285    -0.17491610    -5.94827778     0.00000204    -0.00000000  0.96D-09  0.12D-08  6  4 11014.36
  18      1.42394854    -0.17491479    -5.94827646     0.00000132    -0.00000000  0.24D-09  0.32D-09  6  1 11613.62
  19      1.42386953    -0.17491498    -5.94827665    -0.00000019    -0.00000000  0.44D-10  0.75D-10  6  6 12214.48

 Norm of t1 vector:      0.54364983      S-energy:    -0.00121133      T1 diagnostic:  0.13558217
                                                                       D1 diagnostic:  0.37527154
 Norm of t2 vector:      0.35820999      P-energy:    -0.17370364
                                         Alpha-Beta:  -0.14880242
                                         Alpha-Alpha: -0.02032426
                                         Beta-Beta:   -0.00457696

 Singles amplitudes (print threshold =  0.500E-01):

         I         SYM. A    A   T(IA) [Alpha-Alpha]

         5         1         3      0.29963768
         5         1         6     -0.31925714
         5         1         9      0.19262936
         5         1        12     -0.18459667
         5         1        19      0.08047052
         5         1        27      0.08655382
 
         I         SYM. A    A   T(IA) [Beta-Beta]

         1         1         1      0.10014604

 Spin contamination <S**2-Sz**2-Sz>     0.00000000

 Memory could be reduced to 3736.28 Mwords without degradation in triples
 

 RESULTS
 =======

  Reference energy                     -5.773361673695
  RCCSD singles energy                 -0.001211330842
  RCCSD pair energy                    -0.173703644577
  RCCSD correlation energy             -0.174914975419
  Triples (T) contribution             -0.007280332224
  Total correlation energy             -0.182195307643
 
  RHF-RCCSD energy                     -5.948276649114
  RHF-RCCSD[T] energy                  -5.956423933917
  RHF-RCCSD-T energy                   -5.955465162577
 !RHF-RCCSD(T) energy                  -5.955556981338

 Program statistics:

 Available memory in ccsd:              7999999650
 Min. memory needed in ccsd:              41475363
 Max. memory used in ccsd:                52503705
 Max. memory used in cckext:              35119156 (19 integral passes)
 Max. memory used in cckint:            1035308754 ( 1 integral passes)



 **********************************************************************************************************************************
 DATASETS  * FILE   NREC   LENGTH (MB)   RECORD NAMES
              1      20   117687.20       500      610      700      900      950      970     1000      129      960     1100   
                                          VAR    BASINP    GEOM    SYMINP    ZMAT    AOBASIS   BASIS     P2S    ABASIS      S 
                                         1400     1410     1420     1200     1210     1080     1600     1650     1300     1700   
                                           T        V       ECP      H0       H01     AOSYM     SMH    MOLCAS    ERIS     OPER   

              2       4       16.54       700     1000      520     2100   
                                         GEOM     BASIS   MCVARS     RHF  

 PROGRAMS   *        TOTAL  RCCSD(T)       POP       RHF       INT
 CPU TIMES  *     26871.44  16021.19      0.00   7043.90   3806.26
 REAL TIME  *     31063.93 SEC
 DISK USED  *       433.57 GB      
 **********************************************************************************************************************************
 SETTING CCSD           =        -5.95555698  AU                              
                                                                                                                                                                                                                                                                

       SCF           CCSD
    -5.77336167   -5.95555698
                                                  

 RCCSD(T)/USERDEF energy=     -5.955556981338

        RCCSD(T)        RHF-SCF 
     -5.95555698     -5.77336167
 **********************************************************************************************************************************
 Molpro calculation terminated
 Variable memory released
