
 Primary working directories    : /global/cscratch1/sd/gwang18
 Secondary working directories  : /global/cscratch1/sd/gwang18
 Wavefunction directory         : /global/homes/g/gwang18/wfu/
 Main file repository           : /global/cscratch1/sd/gwang18/

 SHA1      : 19cd028119e0e09f93f0674bd8af7968d9b3eff6
 NAME      : 2015.1.36
 ARCHNAME  : linux/x86_64
 FC        : /opt/cray/pe/craype/2.5.14/bin/ftn
 BLASLIB   : -L/opt/intel/compilers_and_libraries_2018.1.163/linux/mkl/lib/intel64 -Wl,-_start-group -lmkl_intel_ilp64 -lmkl_intel_thread -lmkl_core -Wl,-_end-group -liomp5
 id        : lbl

 Nodes     nprocs
 nid01952     1

 Using customized tuning parameters: mindgm=7; mindgv=16; mindgc=1; mindgr=1; noblas=0; minvec=7
 default implementation of scratch files=df  

 ***,SiH4
 memory,16,g
 gthresh,twoint=1.0E-12
 
 
 basis={
 ECP,Si,10,2,0;
 3;                                                                              !Vd
 1,5.168316,    4.000000
 3,8.861690,   20.673264
 2,3.933474,  -14.818174
 2;                                                                              !Vs-Vd
 2,9.447023,   14.832760
 2,2.553812,   26.349664
 2;                                                                              !Vp-Vd
 2,3.660001,    7.621400
 2,1.903653,   10.331583
 
 Including file /global/u2/g/gwang18/projects/si_gap/sih2/ci/ci/Si.aug-cc-pVDZ.basis
 
 ECP,H,0,1,0
 3;
 2,   21.77696655044365 ,     -10.85192405303825 ;
 1,   21.24359508259891 ,       1.00000000000000;
 3,   21.24359508259891 ,      21.24359508259891;
 1; 2,                   1.,                      0.;
 
 Including file /global/u2/g/gwang18/projects/si_gap/sih2/ci/ci/H.aug-cc-pVDZ.basis
 }
 
 
 angstrom
 geometry={
  Si
  H1     Si     1.51402
  H2     Si     1.51402      H1     91.9830
 }
 
                                                                                 ! HARTREE-FOCK
 {RHF
    wf,6,1,0                                                                     ! nelec,symm,spin
 }
 scf = energy
 
 
 {fci;state,2;
 maxit,100
 core
 }
 posthf=energy
 
 table,scf,posthf
 save,dz.csv,new

 Variables initialized (889), CPU time= 0.00 sec
 Commands  initialized (702), CPU time= 0.01 sec, 572 directives.
 Default parameters read. Elapsed time= 0.35 sec

 Checking input...
 Passed
1


                                         ***  PROGRAM SYSTEM MOLPRO  ***
                                       Copyright, TTI GmbH Stuttgart, 2015
                                    Version 2015.1 linked Dec 29 2018 15:55:43


 **********************************************************************************************************************************
 LABEL *   SiH4                                                                          
  64 bit serial version                                                                  DATE: 03-May-20          TIME: 18:01:51  
 **********************************************************************************************************************************

 SHA1:             19cd028119e0e09f93f0674bd8af7968d9b3eff6
 **********************************************************************************************************************************

 THRESHOLDS:

 ZERO    =  1.00D-12  ONEINT  =  1.00D-12  TWOINT  =  1.00D-12  PREFAC  =  1.00D-14  LOCALI  =  1.00D-09  EORDER  =  1.00D-04
 ENERGY  =  0.00D+00  ETEST   =  0.00D+00  EDENS   =  0.00D+00  THRDEDEF=  1.00D-06  GRADIENT=  1.00D-02  STEP    =  1.00D-03
 ORBITAL =  1.00D-05  CIVEC   =  1.00D-05  COEFF   =  1.00D-04  PRINTCI =  5.00D-02  PUNCHCI =  9.90D+01  OPTGRAD =  3.00D-04
 OPTENERG=  1.00D-06  OPTSTEP =  3.00D-04  THRGRAD =  1.00D-10  COMPRESS=  1.00D-11  VARMIN  =  1.00D-07  VARMAX  =  1.00D-03
 THRDOUB =  0.00D+00  THRDIV  =  1.00D-05  THRRED  =  1.00D-07  THRPSP  =  1.00D+00  THRDC   =  1.00D-10  THRCS   =  1.00D-10
 THRNRM  =  1.00D-08  THREQ   =  0.00D+00  THRDE   =  1.00D+00  THRREF  =  1.00D-05  SPARFAC =  1.00D+00  THRDLP  =  1.00D-07
 THRDIA  =  1.00D-10  THRDLS  =  1.00D-07  THRGPS  =  0.00D+00  THRKEX  =  0.00D+00  THRDIS  =  2.00D-01  THRVAR  =  1.00D-10
 THRLOC  =  1.00D-06  THRGAP  =  1.00D-06  THRLOCT = -1.00D+00  THRGAPT = -1.00D+00  THRORB  =  1.00D-06  THRMLTP =  0.00D+00
 THRCPQCI=  1.00D-10  KEXTA   =  0.00D+00  THRCOARS=  0.00D+00  SYMTOL  =  1.00D-06  GRADTOL =  1.00D-06  THROVL  =  1.00D-08
 THRORTH =  1.00D-08  GRID    =  1.00D-06  GRIDMAX =  1.00D-03  DTMAX   =  0.00D+00  THROCCDE=  1.00D-01  THROCCDE=  1.00D-01



 Variable memory set to ********** words,  buffer space   230000 words

 SETTING BASIS          =    USERDEF
 ZUNIT=ANG
 


 Recomputing integrals since basis changed


 Using spherical harmonics



 PROGRAM * SEWARD (Integral evaluation for generally contracted gaussian basis sets)     Author: Roland Lindh, 1990

 Geometry written to block  1 of record 700

 Orientation using atomic masses  
 Molecule type: Asymmetric top,     Order of principal axis = 2
 Symmetry elements: X,Y
 Rotational constants:     113.0212983    242.8385172    211.4197542 GHz  (calculated with average atomic masses)

 Point group  C2v 



 ATOMIC COORDINATES

 NR  ATOM    CHARGE       X              Y              Z

   1  SI      4.00    0.000000000    0.000000000   -0.133121049
   2  H1      1.00    0.000000000    2.057796109    1.854659610
   3  H2      1.00    0.000000000   -2.057796109    1.854659610

 Bond lengths in Bohr (Angstrom)

 1-2  2.861083147  1-3  2.861083147
     ( 1.514020000)     ( 1.514020000)

 Bond angles

  2-1-3   91.98300000

 NUCLEAR CHARGE:                    6
 NUMBER OF PRIMITIVE AOS:          92
 NUMBER OF SYMMETRY AOS:           90
 NUMBER OF CONTRACTIONS:           40   (  17A1  +   7B1  +  12B2  +   4A2  )
 NUMBER OF CORE ORBITALS:           0   (   0A1  +   0B1  +   0B2  +   0A2  )
 NUMBER OF VALENCE ORBITALS:        6   (   3A1  +   1B1  +   2B2  +   0A2  )


 NUCLEAR REPULSION ENERGY    3.03912223

 Eigenvalues of metric

         1 0.218E-02 0.117E-01 0.301E-01 0.552E-01 0.660E-01 0.167E+00 0.224E+00 0.245E+00
         2 0.161E-01 0.662E-01 0.260E+00 0.478E+00 0.757E+00 0.197E+01 0.370E+01
         3 0.196E-02 0.480E-02 0.507E-01 0.753E-01 0.107E+00 0.244E+00 0.356E+00 0.371E+00
         4 0.169E+00 0.477E+00 0.806E+00 0.230E+01


 Contracted 2-electron integrals neglected if value below      1.0D-12
 AO integral compression algorithm  1   Integral accuracy      1.0D-12

     1.311 MB (compressed) written to integral file ( 92.5%)


 NUMBER OF SORTED TWO-ELECTRON INTEGRALS:      95435.     BUFFER LENGTH:  32768
 NUMBER OF SEGMENTS:   1  SEGMENT LENGTH:      95435      RECORD LENGTH: 524288

 Memory used in sort:       0.65 MW

 SORT1 READ      157879. AND WROTE       88348. INTEGRALS IN      1 RECORDS. CPU TIME:     0.01 SEC, REAL TIME:     0.01 SEC
 SORT2 READ       88348. AND WROTE       95435. INTEGRALS IN      5 RECORDS. CPU TIME:     0.01 SEC, REAL TIME:     0.01 SEC

 FILE SIZES:   FILE 1:    21.2 MBYTE,  FILE 4:     4.2 MBYTE,   TOTAL:     25.5 MBYTE

 OPERATOR DM      FOR CENTER  0  COORDINATES:    0.000000    0.000000    0.000000


 **********************************************************************************************************************************
 DATASETS  * FILE   NREC   LENGTH (MB)   RECORD NAMES
              1      20       20.58       500      610      700      900      950      970     1000      129      960     1100   
                                          VAR    BASINP    GEOM    SYMINP    ZMAT    AOBASIS   BASIS     P2S    ABASIS      S 
                                         1400     1410     1420     1200     1210     1080     1600     1650     1300     1700   
                                           T        V       ECP      H0       H01     AOSYM     SMH    MOLCAS    ERIS     OPER   

 PROGRAMS   *        TOTAL       INT
 CPU TIMES  *         3.59      3.51
 REAL TIME  *        17.32 SEC
 DISK USED  *        25.75 MB      
 **********************************************************************************************************************************


 PROGRAM * RHF-SCF (CLOSED SHELL)       Authors: W. Meyer, H.-J. Werner


 NUMBER OF ELECTRONS:       3+    3-    SPACE SYMMETRY=1    SPIN SYMMETRY: Singlet 
 CONVERGENCE THRESHOLDS:    1.00E-05 (Density)    1.00E-07 (Energy)
 MAX. NUMBER OF ITERATIONS:       60
 INTERPOLATION TYPE:            DIIS
 INTERPOLATION STEPS:              2 (START)      1 (STEP)
 LEVEL SHIFTS:                  0.00 (CLOSED)  0.00 (OPEN) 



 Orbital guess generated from atomic densities. Full valence occupancy:    3   1   2   0

 Molecular orbital dump at record        2100.2

 Initial occupancy:   2   0   1   0

 ITERATION    DDIFF          GRAD             ENERGY        2-EL.EN.            DIPOLE MOMENTS         DIIS   ORB.
    1      0.000D+00      0.000D+00        -4.83855211      9.729710    0.00000    0.00000    0.03635    0    start
    2      0.000D+00      0.818D-02        -4.84498689      9.856866    0.00000    0.00000    0.10309    1    diag
    3      0.136D-01      0.204D-02        -4.84554393      9.859659    0.00000    0.00000    0.12907    2    diag
    4      0.490D-02      0.449D-03        -4.84558095      9.860627    0.00000    0.00000    0.14162    3    diag
    5      0.112D-02      0.838D-04        -4.84558249      9.860384    0.00000    0.00000    0.14465    4    diag
    6      0.299D-03      0.104D-04        -4.84558251      9.860353    0.00000    0.00000    0.14504    5    diag
    7      0.346D-04      0.917D-06        -4.84558251      9.860350    0.00000    0.00000    0.14505    6    diag
    8      0.296D-05      0.115D-06        -4.84558251      9.860350    0.00000    0.00000    0.14505    0    orth

 Final occupancy:   2   0   1   0

 !RHF STATE 1.1 Energy                 -4.845582506179
 Nuclear energy                         3.03912223
 One-electron energy                  -12.81487956
 Two-electron energy                    4.93017482
 Virial quotient                       -1.92107327
 !RHF STATE 1.1 Dipole moment           0.00000000     0.00000000     0.14504960
 Dipole moment /Debye                   0.00000000     0.00000000     0.36865517

 Orbital energies:

         1.1          2.1          3.1          4.1
     -0.680561    -0.337736     0.072985     0.195410

         1.2          2.2
      0.004793     0.233274

         1.3          2.3          3.3
     -0.458968     0.107932     0.147633

         1.4          2.4
      0.230988     0.507638

 HOMO      2.1    -0.337736 =      -9.1903eV
 LUMO      1.2     0.004793 =       0.1304eV
 LUMO-HOMO         0.342529 =       9.3207eV


 **********************************************************************************************************************************
 DATASETS  * FILE   NREC   LENGTH (MB)   RECORD NAMES
              1      20       20.58       500      610      700      900      950      970     1000      129      960     1100   
                                          VAR    BASINP    GEOM    SYMINP    ZMAT    AOBASIS   BASIS     P2S    ABASIS      S 
                                         1400     1410     1420     1200     1210     1080     1600     1650     1300     1700   
                                           T        V       ECP      H0       H01     AOSYM     SMH    MOLCAS    ERIS     OPER   

              2       4        2.77       700     1000      520     2100   
                                         GEOM     BASIS   MCVARS     RHF  

 PROGRAMS   *        TOTAL       RHF       INT
 CPU TIMES  *         3.64      0.05      3.51
 REAL TIME  *        17.59 SEC
 DISK USED  *        25.75 MB      
 **********************************************************************************************************************************
 SETTING SCF            =        -4.84558251  AU                              


 PROGRAM * FCI (Full CI)     Author: P.J. Knowles, 1984

 ***  Initialisation ***
 
 Molecular orbitals read from record     2100.2  Type=RHF/CANONICAL (state 1.1)
 
 Frozen orbitals:              0 (  0  0  0  0  0  0  0  0)
 Active orbitals:             40 ( 17  7 12  4  0  0  0  0)
 Active electrons:             6
 Spin quantum number:          0.0
 Orbital pairs:                   269     167     232     152       0       0       0       0
 Strings:                        2597    2307    2652    2324       0       0       0       0
                                 2597    2307    2652    2324       0       0       0       0
 Determinants:                       24500738        24309054        24497424        24307184
                                            0               0               0               0

 Load integrals                3.8 sec
 Transform integrals           3.8 sec
 Storage for integrals:         180418
 Remaining memory:           *********

 Core energy:               3.03912223
 Run Hamiltonian processor DAVIDSON
 Symmetry:                   1
 Trial vector:                  0.00
 Result vector:                 0.00
 Maximum iterations:          100
 Convergence threshold:         0.0000100
 RHS vector:                    0.00
 Hamiltonian shift:             0.0000000
 Output threshold:              0.0500000
 Options:                        0
 Number of roots:             2

 Hamiltonian diagonaliser entered at time      3.85

 Initial configuration generated:
12066659      1.0000000     -4.8455825

 It  Tr    CPU  Convergence   Energy       Pop     dE(next)

  1   1  100.8  1.00000000    -4.84558251
                                           0.00 -0.12946536 -0.12946510
  2   2  176.2  0.95832892    -4.96031741    -3.55435038
                                           0.01 -0.73424499 -0.72977455
  3   2  280.1  0.88810970    -4.96077006    -4.54681665
                                           0.01 -0.13739287 -0.13610648
  4   2  389.4  0.45668328    -4.96077497    -4.73323793
                                           0.02 -0.02461924 -0.02426788
  5   2  520.8  0.17157795    -4.96081249    -4.76699706
                                           0.04 -0.00641854 -0.00623190
  6   2  687.1  0.08252398    -4.96081266    -4.77528858
                                           0.06 -0.00158680 -0.00151259
  7   2  906.5  0.03957247    -4.96083422    -4.77728087
                                           0.09 -0.00038354 -0.00035732
  8   2 1198.3  0.01809631    -4.96089699    -4.77773295
                                           0.12 -0.00010884 -0.00009861
  9   2 1552.9  0.00971994    -4.96099097    -4.77786020
                                           0.15 -0.00003866 -0.00003418
 10   2 1972.8  0.00583362    -4.96099303    -4.77790601
                                           0.18 -0.00001574 -0.00001358
 11   1 2454.2  0.00806580    -4.96109882    -4.77792418
                                           0.02 -0.01313034 -0.01299202
 12   1 2582.3  0.08891677    -4.97272329    -4.77792418
                                           0.05 -0.00128718 -0.00123600
 13   1 2783.9  0.02279007    -4.97389747    -4.77792418
                                           0.12 -0.00018483 -0.00016769
 14   1 3126.7  0.00912051    -4.97406849    -4.77792426
                                           0.19 -0.00003719 -0.00003316
 15   1 3622.2  0.00366672    -4.97410211    -4.77792444
                                           0.21 -0.00000770 -0.00000683
 16   1 4157.9  0.00158233    -4.97410900    -4.77792464
                                           0.23 -0.00000151 -0.00000131
 17   1 4736.4  0.00067996    -4.97411032    -4.77792471
                                           0.25 -0.00000032 -0.00000027
 18   1 5361.6  0.00030695    -4.97411060    -4.77792472
                                           0.26 -0.00000007 -0.00000006
 19   1 6003.5  0.00014548    -4.97411066    -4.77792474
                                           0.26 -0.00000002 -0.00000001
 20   1 6654.1  0.00006856    -4.97411068    -4.77792475
                                           0.27 -0.00000000 -0.00000000
 21   2 7320.7  0.00007893    -4.97411068    -4.77792476
                                           0.20 -0.00000665 -0.00000571
 22   2 7849.2  0.00226296    -4.97411068    -4.77793234
                                           0.22 -0.00000274 -0.00000229
 23   2 8409.2  0.00141987    -4.97411068    -4.77793533
                                           0.24 -0.00000121 -0.00000099
 24   2 9005.9  0.00097519    -4.97411068    -4.77793664
                                           0.25 -0.00000059 -0.00000047
 25   2 9633.2  0.00071265    -4.97411068    -4.77793729
                                           0.26 -0.00000032 -0.00000026
 26   210293.0  0.00055138    -4.97411068    -4.77793766
                                           0.25 -0.00000018 -0.00000014
 27   210928.1  0.00043388    -4.97411068    -4.77793787
                                           0.25 -0.00000010 -0.00000008
 28   211557.8  0.00032056    -4.97411068    -4.77793799
                                           0.27 -0.00000006 -0.00000005
 29   212224.6  0.00023349    -4.97411068    -4.77793806
                                           0.27 -0.00000003 -0.00000003
 30   212888.1  0.00016196    -4.97411068    -4.77793810
                                           0.26 -0.00000002 -0.00000001
 31   213529.2  0.00011170    -4.97411068    -4.77793811
                                           0.25 -0.00000001 -0.00000001
 32   214157.8  0.00007679    -4.97411068    -4.77793812
                                           0.25 -0.00000000 -0.00000000
 33   214796.1  0.00005231    -4.97411068    -4.77793813
                                           0.26 -0.00000000 -0.00000000
 34   215454.3  0.00003468    -4.97411068    -4.77793813
                                           0.27 -0.00000000 -0.00000000
 35   216118.4  0.00002238    -4.97411068    -4.77793813
                                           0.27 -0.00000000 -0.00000000
 36   216779.6  0.00001367    -4.97411068    -4.77793813
                                           0.27 -0.00000000 -0.00000000
 37   217454.5  0.00000809    -4.97411068    -4.77793813


RESULTS FOR STATE 1.1
=====================

 Correlation energy                    -0.128528174625
 !FCI STATE 1.1 Energy                 -4.974110680805
 CI Vector (threshold= 0.500E-01)
      -0.066258260855  1 25 27  1 25 27
       0.944963551815  1  2 25  1  2 25
      -0.109392415236  1 18 25  1 18 25
 /EOF
 !FCI STATE 1.1 Dipole moment           0.00000000     0.00000000     0.04671524
 Dipole moment /Debye                   0.00000000     0.00000000     0.11873053


RESULTS FOR STATE 2.1
=====================

 !FCI STATE 2.1 Energy                 -4.777938129715
 CI Vector (threshold= 0.500E-01)
      -0.113077365451  1  2 18  1  2 18
       0.101396021710  1  2 25  1  2 25
       0.108492335435  1  2 25  1  4 25
       0.108492335435  1  4 25  1  2 25
      -0.058673455504  1  4 25  1  4 25
       0.879371672717  1 18 25  1 18 25
       0.140051642149  1 18 25  1 20 25
      -0.069099666566  1 18 25  2 18 25
       0.140051642149  1 20 25  1 18 25
      -0.069099666566  2 18 25  1 18 25
      -0.075469873261  2 18 25  2 18 25
 /EOF
 !FCI STATE 2.1 Dipole moment           0.00000000     0.00000000    -0.33448238
 Dipole moment /Debye                   0.00000000     0.00000000    -0.85011373


 **********************************************************************************************************************************
 DATASETS  * FILE   NREC   LENGTH (MB)   RECORD NAMES
              1      20       20.58       500      610      700      900      950      970     1000      129      960     1100   
                                          VAR    BASINP    GEOM    SYMINP    ZMAT    AOBASIS   BASIS     P2S    ABASIS      S 
                                         1400     1410     1420     1200     1210     1080     1600     1650     1300     1700   
                                           T        V       ECP      H0       H01     AOSYM     SMH    MOLCAS    ERIS     OPER   

              2       4        2.77       700     1000      520     2100   
                                         GEOM     BASIS   MCVARS     RHF  

 PROGRAMS   *        TOTAL       FCI       RHF       INT
 CPU TIMES  *     17484.97  17481.33      0.05      3.51
 REAL TIME  *     17825.51 SEC
 DISK USED  *        14.72 GB      
 **********************************************************************************************************************************
 SETTING POSTHF(1)      =        -4.97411068  AU                              
 SETTING POSTHF(2)      =        -4.77793813  AU                              
                                                                                                                                                                                                                                                                

       SCF           POSTHF
    -4.84558251   -4.97411068
                                                  

 FCI/USERDEF energy=     -4.777938129715

        FCI             RHF-SCF 
     -4.77793813     -4.84558251
 **********************************************************************************************************************************
 Molpro calculation terminated
 Variable memory released
