----- GAMESS execution script 'rungms' -----
This job is running on host gwang18-p3
under operating system Linux at 2020年 05月 29日 星期五 15:23:03 EDT
Available scratch disk space (Kbyte units) at beginning of the job is
Filesystem     1K-blocks      Used Available Use% Mounted on
/dev/sda6      216112148 177783848  27327316  87% /
GAMESS temporary binary files will be written to /home/gwang18/research/projects/si_gap/sih4/cis/qz/cis/30orb
GAMESS supplementary output files will be written to /home/gwang18/research/projects/si_gap/sih4/cis/qz/cis/30orb
Copying input file hf.inp to your run's scratch directory...

 Distributed Data Interface kickoff program.
 Initiating 1 compute processes on 1 nodes to run the following command:
 /home/gwang18/software/gamess/gamess.00.x hf 

          ******************************************************
          *         GAMESS VERSION =  5 DEC 2014 (R1)          *
          *             FROM IOWA STATE UNIVERSITY             *
          * M.W.SCHMIDT, K.K.BALDRIDGE, J.A.BOATZ, S.T.ELBERT, *
          *   M.S.GORDON, J.H.JENSEN, S.KOSEKI, N.MATSUNAGA,   *
          *          K.A.NGUYEN, S.J.SU, T.L.WINDUS,           *
          *       TOGETHER WITH M.DUPUIS, J.A.MONTGOMERY       *
          *         J.COMPUT.CHEM.  14, 1347-1363(1993)        *
          **************** 64 BIT LINUX VERSION ****************

  SINCE 1993, STUDENTS AND POSTDOCS WORKING AT IOWA STATE UNIVERSITY
  AND ALSO IN THEIR VARIOUS JOBS AFTER LEAVING ISU HAVE MADE IMPORTANT
  CONTRIBUTIONS TO THE CODE:
     IVANA ADAMOVIC, CHRISTINE AIKENS, YURI ALEXEEV, POOJA ARORA,
     ANDREY ASADCHEV, ROB BELL, PRADIPTA BANDYOPADHYAY, JONATHAN BENTZ,
     BRETT BODE, KURT BRORSEN, CALEB CARLIN, GALINA CHABAN, WEI CHEN,
     CHEOL HO CHOI, PAUL DAY, ALBERT DEFUSCO, NUWAN DESILVA, TIM DUDLEY,
     DMITRI FEDOROV, GRAHAM FLETCHER, MARK FREITAG, KURT GLAESEMANN,
     DAN KEMP, GRANT MERRILL, NORIYUKI MINEZAWA, JONATHAN MULLIN,
     TAKESHI NAGATA, SEAN NEDD, HEATHER NETZLOFF, BOSILJKA NJEGIC, RYAN OLSON,
     MIKE PAK, SPENCER PRUITT, LUKE ROSKOP, JIM SHOEMAKER, LYUDMILA SLIPCHENKO,
     TONY SMITH, SAROM SOK, JIE SONG, TETSUYA TAKETSUGU, SIMON WEBB,
     PENG XU, SOOHAENG YOO, FEDERICO ZAHARIEV

  ADDITIONAL CODE HAS BEEN PROVIDED BY COLLABORATORS IN OTHER GROUPS:
     IOWA STATE UNIVERSITY:
          JOE IVANIC, AARON WEST, LAIMUTIS BYTAUTAS, KLAUS RUEDENBERG
     UNIVERSITY OF TOKYO: KIMIHIKO HIRAO, TAKAHITO NAKAJIMA,
          TAKAO TSUNEDA, MUNEAKI KAMIYA, SUSUMU YANAGISAWA,
          KIYOSHI YAGI, MAHITO CHIBA, SEIKEN TOKURA, NAOAKI KAWAKAMI
     UNIVERSITY OF AARHUS: FRANK JENSEN
     UNIVERSITY OF IOWA: VISVALDAS KAIRYS, HUI LI
     NATIONAL INST. OF STANDARDS AND TECHNOLOGY: WALT STEVENS, DAVID GARMER
     UNIVERSITY OF PISA: BENEDETTA MENNUCCI, JACOPO TOMASI
     UNIVERSITY OF MEMPHIS: HENRY KURTZ, PRAKASHAN KORAMBATH
     UNIVERSITY OF ALBERTA: TOBY ZENG, MARIUSZ KLOBUKOWSKI
     UNIVERSITY OF NEW ENGLAND: MARK SPACKMAN
     MIE UNIVERSITY: HIROAKI UMEDA
     NAT. INST. OF ADVANCED INDUSTRIAL SCIENCE AND TECHNOLOGY: KAZUO KITAURA
     MICHIGAN STATE UNIVERSITY:
          KAROL KOWALSKI, MARTA WLOCH, JEFFREY GOUR, JESSE LUTZ,
          WEI LI, PIOTR PIECUCH
     UNIVERSITY OF SILESIA: MONIKA MUSIAL, STANISLAW KUCHARSKI
     FACULTES UNIVERSITAIRES NOTRE-DAME DE LA PAIX:
          OLIVIER QUINET, BENOIT CHAMPAGNE
     UNIVERSITY OF CALIFORNIA - SANTA BARBARA: BERNARD KIRTMAN
     INSTITUTE FOR MOLECULAR SCIENCE:
          KAZUYA ISHIMURA, MICHIO KATOUDA, AND SHIGERU NAGASE
     UNIVERSITY OF NOTRE DAME: ANNA POMOGAEVA, DAN CHIPMAN
     KYUSHU UNIVERSITY:
          HARUYUKI NAKANO,
          FENG LONG GU, JACEK KORCHOWIEC, MARCIN MAKOWSKI, AND YURIKO AOKI,
          HIROTOSHI MORI AND EISAKU MIYOSHI
     PENNSYLVANIA STATE UNIVERSITY:
          TZVETELIN IORDANOV, CHET SWALINA, JONATHAN SKONE,
          SHARON HAMMES-SCHIFFER
     WASEDA UNIVERSITY:
          MASATO KOBAYASHI, TOMOKO AKAMA, TSUGUKI TOUMA,
          TAKESHI YOSHIKAWA, YASUHIRO IKABATA, HIROMI NAKAI
     NANJING UNIVERSITY: SHUHUA LI
     UNIVERSITY OF NEBRASKA:
          PEIFENG SU, DEJUN SI, NANDUN THELLAMUREGE, YALI WANG, HUI LI
     UNIVERSITY OF ZURICH: ROBERTO PEVERATI, KIM BALDRIDGE
     N. COPERNICUS UNIVERSITY AND JACKSON STATE UNIVERSITY:
          MARIA BARYSZ
     UNIVERSITY OF COPENHAGEN: CASPER STEINMANN
     TOKYO INSTITUTE OF TECHNOLOGY: HIROYA NAKATA
     NAGOYA UNIVERSITY: YOSHIO NISHIMOTO, STEPHAN IRLE

 EXECUTION OF GAMESS BEGUN Fri May 29 15:23:03 2020

            ECHO OF THE FIRST FEW INPUT CARDS -
 INPUT CARD> $CONTRL                                                                        
 INPUT CARD>     SCFTYP=RHF                                                                 
 INPUT CARD>     MULT=1                                                                     
 INPUT CARD>     ICHARG=0                                                                   
 INPUT CARD>     RUNTYP=energy                                                              
 INPUT CARD>     MAXIT=200                                                                  
 INPUT CARD>     PP=READ                                                                    
 INPUT CARD>     UNITS=ANGS                                                                 
 INPUT CARD> !    ICUT=12                                                                   
 INPUT CARD> $END                                                                           
 INPUT CARD>                                                                                
 INPUT CARD> $SYSTEM                                                                        
 INPUT CARD>    MWORDS=1000                                                                 
 INPUT CARD>    MEMDDI=1000                                                                 
 INPUT CARD> $END                                                                           
 INPUT CARD>                                                                                
 INPUT CARD> $GUESS                                                                         
 INPUT CARD>    GUESS=HUCKEL                                                                
 INPUT CARD>!    GUESS=MOREAD                                                               
 INPUT CARD>!    NORB=94                                                                    
 INPUT CARD>!    PUNMO=.T.                                                                  
 INPUT CARD> $END                                                                           
 INPUT CARD>                                                                                
 INPUT CARD> $SCF FDIFF=.F. DAMP=.T. SOSCF=.F. SHIFT=.T. RSTRCT=.T. DIIS=.T.  $end          
 INPUT CARD>                                                                                
 INPUT CARD>                                                                                
 INPUT CARD>! $MCSCF                                                                        
 INPUT CARD>!      CISTEP=GUGA                                                              
 INPUT CARD>! $END                                                                          
 INPUT CARD>                                                                                
 INPUT CARD>! $CIDRT                                                                        
 INPUT CARD>!      NPRT=2                                                                   
 INPUT CARD>!      NFZC=0                                                                   
 INPUT CARD>!      NDOC=4                                                                   
 INPUT CARD>! !     NAOS=1                                                                  
 INPUT CARD>! !     NBOS=1                                                                  
 INPUT CARD>!      NVAL=30                                                                  
 INPUT CARD>!      IEXCIT=1                                                                 
 INPUT CARD>!      GROUP=C1                                                                 
 INPUT CARD>! $END                                                                          
 INPUT CARD>!                                                                               
 INPUT CARD>! $GUGDIA NSTATE=2 $END                                                         
 INPUT CARD>!                                                                               
 INPUT CARD>! $GUGDM NFLGDM(1)=1,1 IROOT=2 $END                                             
 INPUT CARD>!                                                                               
 INPUT CARD>! $GUGDIA PRTTOL=0.0001 $END                                                    
 INPUT CARD>                                                                                
 INPUT CARD>! $CIS                                                                          
 INPUT CARD>!      HAMTYP=SAPS MULT=1 NACORE=0 NSTATE=1 IROOT=1                             
 INPUT CARD>! $END                                                                          
 1000000000 WORDS OF MEMORY AVAILABLE


     RUN TITLE
     ---------
 Silane CIS calculation                                                          

 THE POINT GROUP OF THE MOLECULE IS C1      
 THE ORDER OF THE PRINCIPAL AXIS IS     0
 *** WARNING! ATOM   1 SHELL    5 TYPE P HAS NORMALIZATION   0.99999860

 ATOM      ATOMIC                      COORDINATES (BOHR)
           CHARGE         X                   Y                   Z
 SI         14.0     0.0000000000        0.0000000000        0.0000000000
 H           1.0     1.6145818839        1.6145818839        1.6145818839
 H           1.0    -1.6145818839       -1.6145818839        1.6145818839
 H           1.0    -1.6145818839        1.6145818839       -1.6145818839
 H           1.0     1.6145818839       -1.6145818839       -1.6145818839

          INTERNUCLEAR DISTANCES (ANGS.)
          ------------------------------

                1 SI         2 H          3 H          4 H          5 H     

   1 SI      0.0000000    1.4798642 *  1.4798642 *  1.4798642 *  1.4798642 *
   2 H       1.4798642 *  0.0000000    2.4166081 *  2.4166081 *  2.4166081 *
   3 H       1.4798642 *  2.4166081 *  0.0000000    2.4166081 *  2.4166081 *
   4 H       1.4798642 *  2.4166081 *  2.4166081 *  0.0000000    2.4166081 *
   5 H       1.4798642 *  2.4166081 *  2.4166081 *  2.4166081 *  0.0000000  

  * ... LESS THAN  3.000


     ATOMIC BASIS SET
     ----------------
 THE CONTRACTED PRIMITIVE FUNCTIONS HAVE BEEN UNNORMALIZED
 THE CONTRACTED BASIS FUNCTIONS ARE NOW NORMALIZED TO UNITY

  SHELL TYPE  PRIMITIVE        EXPONENT          CONTRACTION COEFFICIENT(S)

 SI        

      1   S       1             9.9982740    0.002893997896
      1   S       2             5.5176440   -0.014522989441
      1   S       3             3.0449650    0.077633943557
      1   S       4             1.6803930   -0.224021837126
      1   S       5             0.9273410   -0.149079891612
      1   S       6             0.5117620    0.085943937515
      1   S       7             0.2824210    0.355393741613
      1   S       8             0.1558570    0.445218676307
      1   S       9             0.0860110    0.267229805712
      1   S      10             0.0474660    0.060786955805

      2   S      11             0.4885040    1.000000000000

      3   S      12             0.1994570    1.000000000000

      4   S      13             0.0814390    1.000000000000

      5   P      14             5.0278680   -0.003241995466
      5   P      15             2.8677510    0.010648985106
      5   P      16             1.6356830   -0.049760930401
      5   P      17             0.9329470   -0.000016999976
      5   P      18             0.5321260    0.106059851657
      5   P      19             0.3035090    0.236201669632
      5   P      20             0.1731130    0.310664565483
      5   P      21             0.0987390    0.294695587818
      5   P      22             0.0563180    0.153897784748
      5   P      23             0.0321220    0.042336940785

      6   P      24             1.2257900    1.000000000000

      7   P      25             0.5013640    1.000000000000

      8   P      26             0.2050640    1.000000000000

      9   D      27             0.9970030    1.000000000000

     10   D      28             0.3659420    1.000000000000

     11   D      29             0.1343160    1.000000000000

     12   F      30             0.5491160    1.000000000000

     13   F      31             0.2149980    1.000000000000

     14   G      32             0.4595470    1.000000000000

 H         

     15   S      33            23.8431850    0.004114899701
     15   S      34            10.2124430    0.010464399240
     15   S      35             4.3741640    0.028011097966
     15   S      36             1.8735290    0.075886194491
     15   S      37             0.8024650    0.182106186780
     15   S      38             0.3437090    0.348521374698
     15   S      39             0.1472170    0.378231272542
     15   S      40             0.0630550    0.116424091548

     16   S      41             0.0818560    1.000000000000

     17   S      42             0.2332540    1.000000000000

     18   S      43             0.6646730    1.000000000000

     19   P      44             0.2844690    1.000000000000

     20   P      45             0.8471590    1.000000000000

     21   P      46             2.5228680    1.000000000000

     22   D      47             0.6652790    1.000000000000

     23   D      48             2.0487390    1.000000000000

     24   F      49             1.4214600    1.000000000000

 H         

     25   S      50            23.8431850    0.004114899701
     25   S      51            10.2124430    0.010464399240
     25   S      52             4.3741640    0.028011097966
     25   S      53             1.8735290    0.075886194491
     25   S      54             0.8024650    0.182106186780
     25   S      55             0.3437090    0.348521374698
     25   S      56             0.1472170    0.378231272542
     25   S      57             0.0630550    0.116424091548

     26   S      58             0.0818560    1.000000000000

     27   S      59             0.2332540    1.000000000000

     28   S      60             0.6646730    1.000000000000

     29   P      61             0.2844690    1.000000000000

     30   P      62             0.8471590    1.000000000000

     31   P      63             2.5228680    1.000000000000

     32   D      64             0.6652790    1.000000000000

     33   D      65             2.0487390    1.000000000000

     34   F      66             1.4214600    1.000000000000

 H         

     35   S      67            23.8431850    0.004114899701
     35   S      68            10.2124430    0.010464399240
     35   S      69             4.3741640    0.028011097966
     35   S      70             1.8735290    0.075886194491
     35   S      71             0.8024650    0.182106186780
     35   S      72             0.3437090    0.348521374698
     35   S      73             0.1472170    0.378231272542
     35   S      74             0.0630550    0.116424091548

     36   S      75             0.0818560    1.000000000000

     37   S      76             0.2332540    1.000000000000

     38   S      77             0.6646730    1.000000000000

     39   P      78             0.2844690    1.000000000000

     40   P      79             0.8471590    1.000000000000

     41   P      80             2.5228680    1.000000000000

     42   D      81             0.6652790    1.000000000000

     43   D      82             2.0487390    1.000000000000

     44   F      83             1.4214600    1.000000000000

 H         

     45   S      84            23.8431850    0.004114899701
     45   S      85            10.2124430    0.010464399240
     45   S      86             4.3741640    0.028011097966
     45   S      87             1.8735290    0.075886194491
     45   S      88             0.8024650    0.182106186780
     45   S      89             0.3437090    0.348521374698
     45   S      90             0.1472170    0.378231272542
     45   S      91             0.0630550    0.116424091548

     46   S      92             0.0818560    1.000000000000

     47   S      93             0.2332540    1.000000000000

     48   S      94             0.6646730    1.000000000000

     49   P      95             0.2844690    1.000000000000

     50   P      96             0.8471590    1.000000000000

     51   P      97             2.5228680    1.000000000000

     52   D      98             0.6652790    1.000000000000

     53   D      99             2.0487390    1.000000000000

     54   F     100             1.4214600    1.000000000000

 TOTAL NUMBER OF BASIS SET SHELLS             =   54
 NUMBER OF CARTESIAN GAUSSIAN BASIS FUNCTIONS =  209
 NUMBER OF ELECTRONS                          =   18
 CHARGE OF MOLECULE                           =    0
 SPIN MULTIPLICITY                            =    1
 NUMBER OF OCCUPIED ORBITALS (ALPHA)          =    9
 NUMBER OF OCCUPIED ORBITALS (BETA )          =    9
 TOTAL NUMBER OF ATOMS                        =    5
 THE NUCLEAR REPULSION ENERGY IS       21.3386114148
 NOTE THIS RUN IS USING CORE POTENTIALS, AND THE NUMBER OF ELECTRONS,
 OCCUPIED ORBITALS, AND NUCLEAR REPULSION ENERGY WILL BE ADJUSTED BELOW
 AFTER REMOVAL OF THE CORE CHARGES.

     $CONTRL OPTIONS
     ---------------
 SCFTYP=RHF          RUNTYP=ENERGY       EXETYP=RUN     
 MPLEVL=       0     CITYP =NONE         CCTYP =NONE         VBTYP =NONE    
 DFTTYP=NONE         TDDFT =NONE    
 MULT  =       1     ICHARG=       0     NZVAR =       0     COORD =UNIQUE  
 PP    =READ         RELWFN=NONE         LOCAL =NONE         NUMGRD=       F
 ISPHER=      -1     NOSYM =       0     MAXIT =     200     UNITS =ANGS    
 PLTORB=       F     MOLPLT=       F     AIMPAC=       F     FRIEND=        
 NPRINT=       7     IREST =       0     GEOM  =INPUT   
 NORMF =       0     NORMP =       0     ITOL  =      20     ICUT  =       9
 INTTYP=BEST         GRDTYP=BEST         QMTTOL= 1.0E-06

     $SYSTEM OPTIONS
     ---------------
  REPLICATED MEMORY=  1000000000 WORDS (ON EVERY NODE).
 DISTRIBUTED MEMDDI=        1000 MILLION WORDS IN AGGREGATE,
 MEMDDI DISTRIBUTED OVER   1 PROCESSORS IS  1000000000 WORDS/PROCESSOR.
 TOTAL MEMORY REQUESTED ON EACH PROCESSOR=  2000000000 WORDS.
 TIMLIM=      525600.00 MINUTES, OR     365.0 DAYS.
 PARALL= F  BALTYP=  DLB     KDIAG=    0  COREFL= F
 MXSEQ2=     300 MXSEQ3=     150  mem10=         0

          --------------
          ECP POTENTIALS
          --------------

 PARAMETERS FOR "SI-CCECP" ON ATOM    1 WITH ZCORE  10 AND LMAX  2 ARE
 FOR L= 2      COEFF    N           ZETA
    1        4.00000    1        5.16832
    2       20.67326    3        8.86169
    3      -14.81817    2        3.93347
 FOR L= 0      COEFF    N           ZETA
    1       14.83276    2        9.44702
    2       26.34966    2        2.55381
 FOR L= 1      COEFF    N           ZETA
    1        7.62140    2        3.66000
    2       10.33158    2        1.90365

 PARAMETERS FOR "H-CCECP " ON ATOM    2 WITH ZCORE   0 AND LMAX  1 ARE
 FOR L= 1      COEFF    N           ZETA
    1        1.00000    1       21.24360
    2       21.24360    3       21.24360
    3      -10.85192    2       21.77697
 FOR L= 0      COEFF    N           ZETA
    1        0.00000    2        1.00000

 PARAMETERS FOR "H-CCECP " ON ATOM    3 ARE THE SAME AS ATOM   2

 PARAMETERS FOR "H-CCECP " ON ATOM    4 ARE THE SAME AS ATOM   2

 PARAMETERS FOR "H-CCECP " ON ATOM    5 ARE THE SAME AS ATOM   2

 THE ECP RUN REMOVES   10 CORE ELECTRONS, AND THE SAME NUMBER OF PROTONS.
 NUMBER OF ELECTRONS KEPT IN THE CALCULATION IS =    8
 NUMBER OF OCCUPIED ORBITALS (ALPHA) KEPT IS    =    4
 NUMBER OF OCCUPIED ORBITALS (BETA ) KEPT IS    =    4
 THE ADJUSTED NUCLEAR REPULSION ENERGY=        7.0352112604
          ECP ANGULAR INTS.........     0.03 SECONDS

          ----------------
          PROPERTIES INPUT
          ----------------

     MOMENTS            FIELD           POTENTIAL          DENSITY
 IEMOM =       1   IEFLD =       0   IEPOT =       0   IEDEN =       0
 WHERE =COMASS     WHERE =NUCLEI     WHERE =NUCLEI     WHERE =NUCLEI  
 OUTPUT=BOTH       OUTPUT=BOTH       OUTPUT=BOTH       OUTPUT=BOTH    
 IEMINT=       0   IEFINT=       0                     IEDINT=       0
                                                       MORB  =       0
          EXTRAPOLATION IN EFFECT
          DAMPING IN EFFECT
          LEVEL SHIFTING IN EFFECT
          RESTRICTION OF ORBITAL MIXING IN EFFECT
          DIIS IN EFFECT
 ORBITAL PRINTING OPTION: NPREO=     1   209     2     1

     -------------------------------
     INTEGRAL TRANSFORMATION OPTIONS
     -------------------------------
     NWORD  =            0
     CUTOFF = 1.0E-09     MPTRAN =       0
     DIRTRF =       F     AOINTS =DUP     

          ----------------------
          INTEGRAL INPUT OPTIONS
          ----------------------
 NOPK  =       1 NORDER=       0 SCHWRZ=       F

     ------------------------------------------
     THE POINT GROUP IS C1 , NAXIS= 0, ORDER= 1
     ------------------------------------------

     DIMENSIONS OF THE SYMMETRY SUBSPACES ARE
 A   =  209

 ..... DONE SETTING UP THE RUN .....
 STEP CPU TIME =     0.06 TOTAL CPU TIME =        0.1 (    0.0 MIN)
 TOTAL WALL CLOCK TIME=        0.2 SECONDS, CPU UTILIZATION IS  27.27%

          ********************
          1 ELECTRON INTEGRALS
          ********************
 TIME TO DO ORDINARY INTEGRALS=      0.02
 TIME TO DO      ECP INTEGRALS=      0.10
 ...... END OF ONE-ELECTRON INTEGRALS ......
 STEP CPU TIME =     0.12 TOTAL CPU TIME =        0.2 (    0.0 MIN)
 TOTAL WALL CLOCK TIME=        0.3 SECONDS, CPU UTILIZATION IS  52.94%

          -------------
          GUESS OPTIONS
          -------------
          GUESS =HUCKEL            NORB  =       0          NORDER=       0
          MIX   =       F          PRTMO =       F          PUNMO =       F
          TOLZ  = 1.0E-08          TOLE  = 1.0E-05
          SYMDEN=       F          PURIFY=       F

 INITIAL GUESS ORBITALS GENERATED BY HUCKEL   ROUTINE.
 HUCKEL GUESS REQUIRES    313733 WORDS.

 SYMMETRIES FOR INITIAL GUESS ORBITALS FOLLOW.   BOTH SET(S).
     4 ORBITALS ARE OCCUPIED (    0 CORE ORBITALS).
     1=A        2=A        3=A        4=A        5=A        6=A        7=A   
     8=A        9=A       10=A       11=A       12=A       13=A       14=A   
 ...... END OF INITIAL ORBITAL SELECTION ......
 STEP CPU TIME =     0.10 TOTAL CPU TIME =        0.3 (    0.0 MIN)
 TOTAL WALL CLOCK TIME=        0.4 SECONDS, CPU UTILIZATION IS  63.64%

                    ----------------------
                    AO INTEGRAL TECHNOLOGY
                    ----------------------
     S,P,L SHELL ROTATED AXIS INTEGRALS, REPROGRAMMED BY
        KAZUYA ISHIMURA (IMS) AND JOSE SIERRA (SYNSTAR).
     S,P,D,L SHELL ROTATED AXIS INTEGRALS PROGRAMMED BY
        KAZUYA ISHIMURA (INSTITUTE FOR MOLECULAR SCIENCE).
     S,P,D,F,G SHELL TO TOTAL QUARTET ANGULAR MOMENTUM SUM 5,
        ERIC PROGRAM BY GRAHAM FLETCHER (ELORET AND NASA ADVANCED
        SUPERCOMPUTING DIVISION, AMES RESEARCH CENTER).
     S,P,D,F,G,L SHELL GENERAL RYS QUADRATURE PROGRAMMED BY
        MICHEL DUPUIS (PACIFIC NORTHWEST NATIONAL LABORATORY).

          --------------------
          2 ELECTRON INTEGRALS
          --------------------

 THE -PK- OPTION IS OFF, THE INTEGRALS ARE NOT IN SUPERMATRIX FORM.
 STORING   15000 INTEGRALS/RECORD ON DISK, USING 12 BYTES/INTEGRAL.
 TWO ELECTRON INTEGRAL EVALUATION REQUIRES  141210 WORDS OF MEMORY.
 II,JST,KST,LST =  1  1  1  1 NREC =         1 INTLOC =    1
 II,JST,KST,LST =  2  1  1  1 NREC =         1 INTLOC =    2
 II,JST,KST,LST =  3  1  1  1 NREC =         1 INTLOC =    7
 II,JST,KST,LST =  4  1  1  1 NREC =         1 INTLOC =   22
 II,JST,KST,LST =  5  1  1  1 NREC =         1 INTLOC =   56
 II,JST,KST,LST =  6  1  1  1 NREC =         1 INTLOC =  125
 II,JST,KST,LST =  7  1  1  1 NREC =         1 INTLOC =  329
 II,JST,KST,LST =  8  1  1  1 NREC =         1 INTLOC =  776
 II,JST,KST,LST =  9  1  1  1 NREC =         1 INTLOC = 1637
 II,JST,KST,LST = 10  1  1  1 NREC =         1 INTLOC = 4868
 II,JST,KST,LST = 11  1  1  1 NREC =         1 INTLOC =12014
 II,JST,KST,LST = 12  1  1  1 NREC =         2 INTLOC =10415
 II,JST,KST,LST = 13  1  1  1 NREC =         5 INTLOC = 6170
 II,JST,KST,LST = 14  1  1  1 NREC =        10 INTLOC =10796
 II,JST,KST,LST = 15  1  1  1 NREC =        26 INTLOC = 3467
 II,JST,KST,LST = 16  1  1  1 NREC =        37 INTLOC =10002
 II,JST,KST,LST = 17  1  1  1 NREC =        49 INTLOC = 8993
 II,JST,KST,LST = 18  1  1  1 NREC =        62 INTLOC =  653
 II,JST,KST,LST = 19  1  1  1 NREC =        75 INTLOC =  198
 II,JST,KST,LST = 20  1  1  1 NREC =       117 INTLOC = 3066
 II,JST,KST,LST = 21  1  1  1 NREC =       164 INTLOC = 9315
 II,JST,KST,LST = 22  1  1  1 NREC =       217 INTLOC = 9642
 II,JST,KST,LST = 23  1  1  1 NREC =       342 INTLOC =  348
 II,JST,KST,LST = 24  1  1  1 NREC =       493 INTLOC = 6480
 II,JST,KST,LST = 25  1  1  1 NREC =       814 INTLOC = 3048
 II,JST,KST,LST = 26  1  1  1 NREC =       851 INTLOC =14828
 II,JST,KST,LST = 27  1  1  1 NREC =       890 INTLOC =11980
 II,JST,KST,LST = 28  1  1  1 NREC =       930 INTLOC =10277
 II,JST,KST,LST = 29  1  1  1 NREC =       971 INTLOC = 9072
 II,JST,KST,LST = 30  1  1  1 NREC =      1100 INTLOC =11469
 II,JST,KST,LST = 31  1  1  1 NREC =      1240 INTLOC = 1557
 II,JST,KST,LST = 32  1  1  1 NREC =      1373 INTLOC = 8676
 II,JST,KST,LST = 33  1  1  1 NREC =      1706 INTLOC = 8384
 II,JST,KST,LST = 34  1  1  1 NREC =      2061 INTLOC = 9707
 II,JST,KST,LST = 35  1  1  1 NREC =      2797 INTLOC = 5964
 II,JST,KST,LST = 36  1  1  1 NREC =      2886 INTLOC = 1112
 II,JST,KST,LST = 37  1  1  1 NREC =      2976 INTLOC = 8727
 II,JST,KST,LST = 38  1  1  1 NREC =      3068 INTLOC =13630
 II,JST,KST,LST = 39  1  1  1 NREC =      3162 INTLOC = 1934
 II,JST,KST,LST = 40  1  1  1 NREC =      3455 INTLOC =  232
 II,JST,KST,LST = 41  1  1  1 NREC =      3761 INTLOC = 4307
 II,JST,KST,LST = 42  1  1  1 NREC =      4024 INTLOC =12253
 II,JST,KST,LST = 43  1  1  1 NREC =      4729 INTLOC =   72
 II,JST,KST,LST = 44  1  1  1 NREC =      5411 INTLOC = 8913
 II,JST,KST,LST = 45  1  1  1 NREC =      6823 INTLOC =13487
 II,JST,KST,LST = 46  1  1  1 NREC =      6995 INTLOC = 5865
 II,JST,KST,LST = 47  1  1  1 NREC =      7170 INTLOC =  101
 II,JST,KST,LST = 48  1  1  1 NREC =      7347 INTLOC = 1265
 II,JST,KST,LST = 49  1  1  1 NREC =      7522 INTLOC =13524
 II,JST,KST,LST = 50  1  1  1 NREC =      8077 INTLOC =14877
 II,JST,KST,LST = 51  1  1  1 NREC =      8642 INTLOC =14511
 II,JST,KST,LST = 52  1  1  1 NREC =      9093 INTLOC =12501
 II,JST,KST,LST = 53  1  1  1 NREC =     10370 INTLOC = 2985
 II,JST,KST,LST = 54  1  1  1 NREC =     11523 INTLOC = 5343
 TOTAL NUMBER OF NONZERO TWO-ELECTRON INTEGRALS =           208769663
      13918 INTEGRAL RECORDS WERE STORED ON DISK FILE  8.
  ...... END OF TWO-ELECTRON INTEGRALS .....
 STEP CPU TIME =     8.76 TOTAL CPU TIME =        9.0 (    0.2 MIN)
 TOTAL WALL CLOCK TIME=       15.2 SECONDS, CPU UTILIZATION IS  59.59%

          --------------------------
                 RHF SCF CALCULATION
          --------------------------

     NUCLEAR ENERGY =         7.0352112604
     MAXIT =  200     NPUNCH=    2
     EXTRAP=T  DAMP=T  SHIFT=T  RSTRCT=T  DIIS=T  DEM=F  SOSCF=F
     DENSITY MATRIX CONV=  1.00E-05
     MEMORY REQUIRED FOR RHF ITERS=    359333 WORDS.

 ITER EX DEM     TOTAL ENERGY        E CHANGE  DENSITY CHANGE    DIIS ERROR      VIR. SHIFT       DAMPING
          * * *   INITIATING DIIS PROCEDURE   * * *
   1  0  0       -5.9396919525    -5.9396919525   1.081255071   0.447544107     0.000000000     1.000000000
   2  1  0       -6.0789652449    -0.1392732924   0.117063744   0.039467686     0.000000000     1.000000000
   3  2  0       -6.0860065057    -0.0070412608   0.025834321   0.012726532     0.000000000     1.000000000
   4  3  0       -6.0867287200    -0.0007222143   0.009063115   0.002810877     0.000000000     1.000000000
   5  4  0       -6.0867614081    -0.0000326881   0.002089762   0.000236774     0.000000000     1.000000000
   6  5  0       -6.0867617053    -0.0000002972   0.000175565   0.000010587     0.000000000     1.000000000
   7  6  0       -6.0867617068    -0.0000000015   0.000017855   0.000000823     0.000000000     1.000000000
   8  7  0       -6.0867617068    -0.0000000000   0.000003437   0.000000193     0.000000000     1.000000000
   9  8  0       -6.0867617068     0.0000000000   0.000000159   0.000000018     0.000000000     1.000000000

          -----------------
          DENSITY CONVERGED
          -----------------
     TIME TO FORM FOCK OPERATORS=      15.3 SECONDS (       1.7 SEC/ITER)
     TIME TO SOLVE SCF EQUATIONS=       0.8 SECONDS (       0.1 SEC/ITER)

 FINAL RHF ENERGY IS       -6.0867617068 AFTER   9 ITERATIONS

          ------------
          EIGENVECTORS
          ------------

                      1          2          3          4          5
                   -0.7330    -0.4869    -0.4869    -0.4869     0.1328
                     A          A          A          A          A   
    1  SI 1  S    0.781275   0.000000  -0.000000   0.000000   0.000000
    2  SI 1  S    0.041129  -0.000000  -0.000000   0.000000   0.000000
    3  SI 1  S   -0.057784   0.000000   0.000000  -0.000000  -0.000000
    4  SI 1  S   -0.246917  -0.000000   0.000000  -0.000000  -0.000000
    5  SI 1  X    0.000000   0.026944  -0.106416  -0.142303  -0.358627
    6  SI 1  Y    0.000000  -0.068893   0.126416  -0.107579   2.551635
    7  SI 1  Z    0.000000  -0.163794  -0.070677   0.021841   6.172677
    8  SI 1  X    0.000000  -0.005093   0.020115   0.026898  -0.020470
    9  SI 1  Y    0.000000   0.013022  -0.023895   0.020335   0.145641
   10  SI 1  Z    0.000000   0.030960   0.013359  -0.004128   0.352322
   11  SI 1  X    0.000000   0.016177  -0.063893  -0.085440   0.094100
   12  SI 1  Y    0.000000  -0.041364   0.075901  -0.064592  -0.669526
   13  SI 1  Z    0.000000  -0.098343  -0.042435   0.013113  -1.619656
   14  SI 1  X    0.000000   0.023761  -0.093848  -0.125496   0.089898
   15  SI 1  Y    0.000000  -0.060757   0.111485  -0.094873  -0.639624
   16  SI 1  Z    0.000000  -0.144448  -0.062330   0.019261  -1.547318
   17  SI 1 XX   -0.003918   0.000000  -0.000000   0.000000  -0.000000
   18  SI 1 YY   -0.003918   0.000000  -0.000000   0.000000  -0.000000
   19  SI 1 ZZ   -0.003918   0.000000  -0.000000   0.000000  -0.000000
   20  SI 1 XY    0.000000  -0.035117  -0.015153   0.004683  -0.032281
   21  SI 1 XZ    0.000000  -0.014771   0.027103  -0.023065  -0.013344
   22  SI 1 YZ    0.000000   0.005777  -0.022815  -0.030510   0.001875
   23  SI 1 XX    0.021190  -0.000000  -0.000000   0.000000   0.000000
   24  SI 1 YY    0.021190  -0.000000  -0.000000   0.000000   0.000000
   25  SI 1 ZZ    0.021190  -0.000000  -0.000000   0.000000   0.000000
   26  SI 1 XY    0.000000  -0.013261  -0.005722   0.001768   0.017726
   27  SI 1 XZ    0.000000  -0.005578   0.010235  -0.008710   0.007327
   28  SI 1 YZ    0.000000   0.002181  -0.008616  -0.011521  -0.001030
   29  SI 1 XX    0.033047   0.000000  -0.000000   0.000000   0.000000
   30  SI 1 YY    0.033047   0.000000  -0.000000   0.000000   0.000000
   31  SI 1 ZZ    0.033047   0.000000  -0.000000   0.000000   0.000000
   32  SI 1 XY    0.000000  -0.035426  -0.015286   0.004724   0.301327
   33  SI 1 XZ    0.000000  -0.014901   0.027342  -0.023268   0.124561
   34  SI 1 YZ    0.000000   0.005827  -0.023016  -0.030778  -0.017507
   35  SI 1 XXX   0.000000  -0.001794   0.007086   0.009476   0.009213
   36  SI 1 YYY   0.000000   0.004588  -0.008418   0.007164  -0.065552
   37  SI 1 ZZZ   0.000000   0.010907   0.004706  -0.001454  -0.158578
   38  SI 1 XXY   0.000000  -0.001097   0.002013  -0.001713  -0.026566
   39  SI 1 XXZ   0.000000  -0.002608  -0.001126   0.000348  -0.064266
   40  SI 1 YYX   0.000000   0.000429  -0.001695  -0.002266   0.003734
   41  SI 1 YYZ   0.000000  -0.002608  -0.001126   0.000348  -0.064266
   42  SI 1 ZZX   0.000000   0.000429  -0.001695  -0.002266   0.003734
   43  SI 1 ZZY   0.000000  -0.001097   0.002013  -0.001713  -0.026566
   44  SI 1 XYZ   0.018149   0.000000  -0.000000   0.000000   0.000000
   45  SI 1 XXX   0.000000   0.000072  -0.000283  -0.000379   0.056218
   46  SI 1 YYY   0.000000  -0.000183   0.000336  -0.000286  -0.399994
   47  SI 1 ZZZ   0.000000  -0.000436  -0.000188   0.000058  -0.967628
   48  SI 1 XXY   0.000000  -0.003260   0.005983  -0.005091  -0.132099
   49  SI 1 XXZ   0.000000  -0.007752  -0.003345   0.001034  -0.319561
   50  SI 1 YYX   0.000000   0.001275  -0.005036  -0.006735   0.018566
   51  SI 1 YYZ   0.000000  -0.007752  -0.003345   0.001034  -0.319561
   52  SI 1 ZZX   0.000000   0.001275  -0.005036  -0.006735   0.018566
   53  SI 1 ZZY   0.000000  -0.003260   0.005983  -0.005091  -0.132099
   54  SI 1 XYZ   0.014852   0.000000  -0.000000   0.000000  -0.000000
   55  SI 1XXXX  -0.004458   0.000000  -0.000000   0.000000   0.000000
   56  SI 1YYYY  -0.004458   0.000000  -0.000000   0.000000   0.000000
   57  SI 1ZZZZ  -0.004458   0.000000  -0.000000   0.000000   0.000000
   58  SI 1XXXY   0.000000  -0.017302  -0.007466   0.002307   0.007946
   59  SI 1XXXZ   0.000000  -0.007277   0.013354  -0.011364   0.003285
   60  SI 1YYYX   0.000000  -0.017302  -0.007466   0.002307   0.007946
   61  SI 1YYYZ   0.000000   0.002846  -0.011241  -0.015032  -0.000462
   62  SI 1ZZZX   0.000000  -0.007277   0.013354  -0.011364   0.003285
   63  SI 1ZZZY   0.000000   0.002846  -0.011241  -0.015032  -0.000462
   64  SI 1XXYY   0.004078   0.000000  -0.000000   0.000000   0.000000
   65  SI 1XXZZ   0.004078   0.000000  -0.000000   0.000000   0.000000
   66  SI 1YYZZ   0.004078   0.000000  -0.000000   0.000000   0.000000
   67  SI 1XXYZ   0.000000   0.001638  -0.006471  -0.008653  -0.002164
   68  SI 1YYXZ   0.000000  -0.004189   0.007687  -0.006541   0.015395
   69  SI 1ZZXY   0.000000  -0.009959  -0.004297   0.001328   0.037243
   70  H  2  S    0.332080  -0.484454  -0.119327  -0.536961  -0.189235
   71  H  2  S   -0.065087   0.041746   0.010283   0.046271  -1.465673
   72  H  2  S   -0.070524   0.054213   0.013353   0.060089  -0.385436
   73  H  2  S   -0.018821   0.019359   0.004768   0.021457  -0.007483
   74  H  2  X   -0.003149   0.010866  -0.000617   0.007028   0.084855
   75  H  2  Y   -0.003149   0.008074   0.006166   0.008039   0.094003
   76  H  2  Z   -0.003149   0.005309   0.000424   0.011810   0.105386
   77  H  2  X   -0.003116   0.007028   0.000104   0.005312   0.027857
   78  H  2  Y   -0.003116   0.005649   0.003455   0.005811   0.047539
   79  H  2  Z   -0.003116   0.004283   0.000618   0.007674   0.072027
   80  H  2  X   -0.000978   0.000737  -0.000095   0.000395  -0.006612
   81  H  2  Y   -0.000978   0.000502   0.000475   0.000480  -0.010492
   82  H  2  Z   -0.000978   0.000270  -0.000008   0.000797  -0.015319
   83  H  2 XX    0.001018  -0.002305   0.000145  -0.001469  -0.005911
   84  H  2 YY    0.001018  -0.001701  -0.001324  -0.001688  -0.003845
   85  H  2 ZZ    0.001018  -0.001102  -0.000080  -0.002505  -0.001274
   86  H  2 XY   -0.000184  -0.002366  -0.000758  -0.001449  -0.013739
   87  H  2 XZ   -0.000184  -0.001818   0.000380  -0.002196  -0.013455
   88  H  2 YZ   -0.000184  -0.001265  -0.000964  -0.002396  -0.013227
   89  H  2 XX    0.000451  -0.000398  -0.000016  -0.000316   0.000372
   90  H  2 YY    0.000451  -0.000328  -0.000185  -0.000341   0.000251
   91  H  2 ZZ    0.000451  -0.000260  -0.000042  -0.000435   0.000101
   92  H  2 XY    0.000218  -0.000367  -0.000102  -0.000333   0.001635
   93  H  2 XZ    0.000218  -0.000333  -0.000029  -0.000380   0.001795
   94  H  2 YZ    0.000218  -0.000297  -0.000115  -0.000393   0.001924
   95  H  2 XXX   0.000074  -0.000451  -0.000033  -0.000381  -0.006608
   96  H  2 YYY   0.000074  -0.000385  -0.000194  -0.000405  -0.014612
   97  H  2 ZZZ   0.000074  -0.000319  -0.000058  -0.000495  -0.024570
   98  H  2 XXY   0.000027   0.000092   0.000006  -0.000006  -0.007900
   99  H  2 XXZ   0.000027   0.000060  -0.000059   0.000037  -0.012075
  100  H  2 YYX   0.000027   0.000070   0.000060   0.000003  -0.004638
  101  H  2 YYZ   0.000027   0.000006   0.000072   0.000057  -0.012168
  102  H  2 ZZX   0.000027   0.000016  -0.000051   0.000075  -0.004753
  103  H  2 ZZY   0.000027  -0.000016   0.000027   0.000087  -0.008108
  104  H  2 XYZ   0.000035   0.000424   0.000105   0.000470  -0.002333
  105  H  3  S    0.332080  -0.286900  -0.213513   0.639814  -0.090022
  106  H  3  S   -0.065087   0.024723   0.018399  -0.055134  -0.697240
  107  H  3  S   -0.070524   0.032106   0.023893  -0.071599  -0.183357
  108  H  3  S   -0.018821   0.011464   0.008532  -0.025567  -0.003560
  109  H  3  X    0.003149  -0.005185  -0.007543   0.009168  -0.042030
  110  H  3  Y    0.003149  -0.007977  -0.000760   0.010180  -0.032882
  111  H  3  Z   -0.003149   0.001198   0.002384  -0.012678   0.060307
  112  H  3  X    0.003116  -0.003545  -0.004458   0.006721  -0.016831
  113  H  3  Y    0.003116  -0.004924  -0.001107   0.007221   0.002851
  114  H  3  Z   -0.003116   0.001575   0.001909  -0.008455   0.056151
  115  H  3  X    0.000978  -0.000331  -0.000556   0.000537   0.003851
  116  H  3  Y    0.000978  -0.000566   0.000014   0.000622  -0.000029
  117  H  3  Z   -0.000978  -0.000004   0.000123  -0.000832  -0.011602
  118  H  3 XX    0.001018  -0.001095  -0.001613   0.001923  -0.002436
  119  H  3 YY    0.001018  -0.001699  -0.000144   0.002142  -0.004502
  120  H  3 ZZ    0.001018  -0.000231  -0.000495   0.002683   0.001692
  121  H  3 XY   -0.000184  -0.001787  -0.001034   0.002002  -0.006789
  122  H  3 XZ    0.000184   0.000444   0.001356  -0.002497   0.006105
  123  H  3 YZ    0.000184   0.000997   0.000012  -0.002698   0.006334
  124  H  3 XX    0.000451  -0.000205  -0.000244   0.000397   0.000155
  125  H  3 YY    0.000451  -0.000274  -0.000075   0.000422   0.000276
  126  H  3 ZZ    0.000451  -0.000105  -0.000116   0.000484  -0.000087
  127  H  3 XY    0.000218  -0.000242  -0.000161   0.000414   0.000635
  128  H  3 XZ   -0.000218   0.000157   0.000182  -0.000445  -0.001020
  129  H  3 YZ   -0.000218   0.000192   0.000096  -0.000458  -0.000892
  130  H  3 XXX  -0.000074   0.000238   0.000264  -0.000473   0.004599
  131  H  3 YYY  -0.000074   0.000304   0.000103  -0.000497  -0.003405
  132  H  3 ZZZ   0.000074  -0.000143  -0.000142   0.000556  -0.020589
  133  H  3 XXY  -0.000027  -0.000067  -0.000062   0.000016  -0.000566
  134  H  3 XXZ   0.000027  -0.000011   0.000080  -0.000044  -0.009492
  135  H  3 YYX  -0.000027  -0.000089  -0.000008   0.000024   0.002697
  136  H  3 YYZ   0.000027   0.000043  -0.000051  -0.000064  -0.009400
  137  H  3 ZZX  -0.000027   0.000042  -0.000039   0.000072   0.002974
  138  H  3 ZZY  -0.000027   0.000010   0.000038   0.000083  -0.000381
  139  H  3 XYZ   0.000035   0.000251   0.000187  -0.000560  -0.001110
  140  H  4  S    0.332080   0.160015   0.714659   0.030336   0.073797
  141  H  4  S   -0.065087  -0.013789  -0.061583  -0.002614   0.571577
  142  H  4  S   -0.070524  -0.017907  -0.079975  -0.003395   0.150311
  143  H  4  S   -0.018821  -0.006394  -0.028557  -0.001212   0.002918
  144  H  4  X    0.003149   0.004115   0.011771  -0.003515   0.032404
  145  H  4  Y   -0.003149  -0.005337  -0.011188  -0.003766  -0.025510
  146  H  4  Z    0.003149  -0.001442   0.012812   0.001268   0.052935
  147  H  4  X    0.003116   0.002581   0.008264  -0.001632   0.009384
  148  H  4  Y   -0.003116  -0.003185  -0.007976  -0.001964   0.005447
  149  H  4  Z    0.003116  -0.000164   0.008778   0.000730   0.053555
  150  H  4  X    0.000978   0.000287   0.000729  -0.000306  -0.002287
  151  H  4  Y   -0.000978  -0.000390  -0.000680  -0.000305  -0.000637
  152  H  4  Z    0.000978  -0.000179   0.000816   0.000095  -0.010994
  153  H  4 XX    0.001018   0.000875   0.002479  -0.000764   0.002460
  154  H  4 YY    0.001018   0.001140   0.002353   0.000812   0.004017
  155  H  4 ZZ    0.001018  -0.000328   0.002704   0.000272  -0.002177
  156  H  4 XY    0.000184  -0.001415  -0.002504   0.000037  -0.005653
  157  H  4 XZ   -0.000184   0.000072   0.002825  -0.000532   0.004969
  158  H  4 YZ    0.000184  -0.000314  -0.002710  -0.000910  -0.005141
  159  H  4 XX    0.000451   0.000145   0.000481  -0.000079  -0.000154
  160  H  4 YY    0.000451   0.000175   0.000467   0.000102  -0.000246
  161  H  4 ZZ    0.000451   0.000006   0.000507   0.000040   0.000117
  162  H  4 XY   -0.000218  -0.000162  -0.000479  -0.000011   0.000471
  163  H  4 XZ    0.000218   0.000076   0.000500  -0.000020  -0.000857
  164  H  4 YZ   -0.000218  -0.000092  -0.000492  -0.000071   0.000760
  165  H  4 XXX  -0.000074  -0.000162  -0.000565   0.000071  -0.001975
  166  H  4 YYY   0.000074   0.000191   0.000551   0.000101  -0.004056
  167  H  4 ZZZ  -0.000074  -0.000030  -0.000589  -0.000042  -0.019938
  168  H  4 XXY   0.000027  -0.000071  -0.000045   0.000038  -0.001015
  169  H  4 XXZ  -0.000027  -0.000006   0.000063  -0.000067  -0.009043
  170  H  4 YYX  -0.000027   0.000081   0.000040   0.000020  -0.001443
  171  H  4 YYZ  -0.000027   0.000017   0.000052   0.000074  -0.008974
  172  H  4 ZZX  -0.000027  -0.000050   0.000072  -0.000029  -0.001721
  173  H  4 ZZY   0.000027   0.000037  -0.000065  -0.000054  -0.000807
  174  H  4 XYZ   0.000035  -0.000140  -0.000626  -0.000027   0.000910
  175  H  5  S    0.332080   0.611340  -0.381819  -0.133190   0.205460
  176  H  5  S   -0.065087  -0.052680   0.032902   0.011477   1.591337
  177  H  5  S   -0.070524  -0.068413   0.042728   0.014905   0.418483
  178  H  5  S   -0.018821  -0.024429   0.015257   0.005322   0.008125
  179  H  5  X   -0.003149  -0.011937   0.004845  -0.001374  -0.094481
  180  H  5  Y    0.003149   0.010714  -0.004262  -0.005906   0.101375
  181  H  5  Z    0.003149   0.007949  -0.010005  -0.002135   0.112758
  182  H  5  X   -0.003116  -0.007991   0.003702  -0.000223  -0.035304
  183  H  5  Y    0.003116   0.007388  -0.003414  -0.003374   0.050135
  184  H  5  Z    0.003116   0.006022  -0.006251  -0.001511   0.074624
  185  H  5  X   -0.000978  -0.000780   0.000268  -0.000164   0.008177
  186  H  5  Y    0.000978   0.000678  -0.000219  -0.000448  -0.011100
  187  H  5  Z    0.000978   0.000445  -0.000701  -0.000131  -0.015927
  188  H  5 XX    0.001018   0.002525  -0.001012   0.000311   0.005887
  189  H  5 YY    0.001018   0.002260  -0.000886  -0.001266   0.004330
  190  H  5 ZZ    0.001018   0.001661  -0.002129  -0.000449   0.001759
  191  H  5 XY    0.000184  -0.002738   0.000712   0.000517  -0.014875
  192  H  5 XZ    0.000184  -0.002190   0.001849  -0.000230  -0.014591
  193  H  5 YZ   -0.000184   0.001948  -0.001734  -0.001212   0.014419
  194  H  5 XX    0.000451   0.000458  -0.000221  -0.000001  -0.000373
  195  H  5 YY    0.000451   0.000428  -0.000207  -0.000182  -0.000282
  196  H  5 ZZ    0.000451   0.000359  -0.000349  -0.000088  -0.000131
  197  H  5 XY   -0.000218  -0.000448   0.000216   0.000093   0.001799
  198  H  5 XZ   -0.000218  -0.000413   0.000289   0.000045   0.001959
  199  H  5 YZ    0.000218   0.000398  -0.000281  -0.000137  -0.002055
  200  H  5 XXX   0.000074   0.000527  -0.000267  -0.000021   0.009231
  201  H  5 YYY  -0.000074  -0.000498   0.000254   0.000193  -0.015263
  202  H  5 ZZZ  -0.000074  -0.000433   0.000390   0.000104  -0.025221
  203  H  5 XXY  -0.000027   0.000087   0.000023   0.000017  -0.008349
  204  H  5 XXZ  -0.000027   0.000056  -0.000042   0.000060  -0.012524
  205  H  5 YYX   0.000027  -0.000078  -0.000028   0.000041   0.005891
  206  H  5 YYZ  -0.000027   0.000032  -0.000031  -0.000081  -0.012594
  207  H  5 ZZX   0.000027  -0.000024   0.000083  -0.000032   0.006006
  208  H  5 ZZY  -0.000027   0.000010  -0.000076  -0.000051  -0.008535
  209  H  5 XYZ   0.000035  -0.000535   0.000334   0.000117   0.002533

                      6          7          8          9         10
                    0.1328     0.1328     0.4016    23.1218     1.6090
                     A          A          A          A          A   
    1  SI 1  S   -0.000000   0.000000  -1.653883 139.243110  -1.612650
    2  SI 1  S   -0.000000   0.000000   2.307272  54.308413 -28.991897
    3  SI 1  S    0.000000  -0.000000  -8.309294 -73.695449  86.697752
    4  SI 1  S   -0.000000   0.000000  12.590570 -57.070587 -15.160283
    5  SI 1  X   -0.820654   6.628673  -0.000000  -0.000000   0.000000
    6  SI 1  Y    6.117899   0.895467   0.000000   0.000000   0.000000
    7  SI 1  Z   -2.576671   0.014955  -0.000000  -0.000000   0.000000
    8  SI 1  X   -0.046841   0.378349  -0.000000   0.000000   0.000000
    9  SI 1  Y    0.349195   0.051111  -0.000000   0.000000   0.000000
   10  SI 1  Z   -0.147070   0.000854  -0.000000   0.000000   0.000000
   11  SI 1  X    0.215332  -1.739305   0.000000   0.000000   0.000000
   12  SI 1  Y   -1.605282  -0.234963  -0.000000   0.000000  -0.000000
   13  SI 1  Z    0.676095  -0.003924   0.000000   0.000000  -0.000000
   14  SI 1  X    0.205715  -1.661623   0.000000  -0.000000   0.000000
   15  SI 1  Y   -1.533587  -0.224469   0.000000  -0.000000   0.000000
   16  SI 1  Z    0.645899  -0.003749  -0.000000   0.000000   0.000000
   17  SI 1 XX    0.000000  -0.000000   0.052371  -9.417680  -0.044328
   18  SI 1 YY    0.000000  -0.000000   0.052371  -9.417680  -0.044328
   19  SI 1 ZZ    0.000000  -0.000000   0.052371  -9.417680  -0.044328
   20  SI 1 XY    0.013475  -0.000078  -0.000000   0.000000   0.000000
   21  SI 1 XZ   -0.031994  -0.004683  -0.000000   0.000000   0.000000
   22  SI 1 YZ    0.004292  -0.034665  -0.000000   0.000000   0.000000
   23  SI 1 XX    0.000000   0.000000   1.211622 -35.636961  -8.249087
   24  SI 1 YY    0.000000   0.000000   1.211622 -35.636961  -8.249087
   25  SI 1 ZZ    0.000000   0.000000   1.211622 -35.636961  -8.249087
   26  SI 1 XY   -0.007399   0.000043  -0.000000   0.000000  -0.000000
   27  SI 1 XZ    0.017569   0.002571  -0.000000  -0.000000   0.000000
   28  SI 1 YZ   -0.002357   0.019035  -0.000000  -0.000000   0.000000
   29  SI 1 XX    0.000000  -0.000000  -0.873504   1.665749   5.800896
   30  SI 1 YY    0.000000  -0.000000  -0.873504   1.665749   5.800896
   31  SI 1 ZZ    0.000000  -0.000000  -0.873504   1.665749   5.800896
   32  SI 1 XY   -0.125783   0.000730  -0.000000  -0.000000   0.000000
   33  SI 1 XZ    0.298653   0.043713   0.000000   0.000000   0.000000
   34  SI 1 YZ   -0.040061   0.323587   0.000000  -0.000000   0.000000
   35  SI 1 XXX   0.021083  -0.170293   0.000000   0.000000   0.000000
   36  SI 1 YYY  -0.157171  -0.023005  -0.000000   0.000000   0.000000
   37  SI 1 ZZZ   0.066196  -0.000384  -0.000000  -0.000000  -0.000000
   38  SI 1 XXY  -0.063695  -0.009323  -0.000000  -0.000000   0.000000
   39  SI 1 XXZ   0.026827  -0.000156  -0.000000  -0.000000  -0.000000
   40  SI 1 YYX   0.008544  -0.069013  -0.000000  -0.000000   0.000000
   41  SI 1 YYZ   0.026827  -0.000156  -0.000000  -0.000000  -0.000000
   42  SI 1 ZZX   0.008544  -0.069013  -0.000000  -0.000000   0.000000
   43  SI 1 ZZY  -0.063695  -0.009323  -0.000000  -0.000000   0.000000
   44  SI 1 XYZ   0.000000  -0.000000   0.103825   0.321658   0.425200
   45  SI 1 XXX   0.128646  -1.039110   0.000000   0.000000   0.000000
   46  SI 1 YYY  -0.959042  -0.140373   0.000000   0.000000   0.000000
   47  SI 1 ZZZ   0.403919  -0.002344   0.000000  -0.000000  -0.000000
   48  SI 1 XXY  -0.316725  -0.046359   0.000000   0.000000   0.000000
   49  SI 1 XXZ   0.133395  -0.000774  -0.000000  -0.000000   0.000000
   50  SI 1 YYX   0.042485  -0.343168   0.000000   0.000000   0.000000
   51  SI 1 YYZ   0.133395  -0.000774  -0.000000  -0.000000   0.000000
   52  SI 1 ZZX   0.042485  -0.343168   0.000000   0.000000   0.000000
   53  SI 1 ZZY  -0.316725  -0.046359   0.000000   0.000000   0.000000
   54  SI 1 XYZ   0.000000  -0.000000   0.262630   0.115554   5.551827
   55  SI 1XXXX  -0.000000   0.000000  -0.032642  14.659332  -0.470469
   56  SI 1YYYY  -0.000000   0.000000  -0.032642  14.659332  -0.470469
   57  SI 1ZZZZ  -0.000000   0.000000  -0.032642  14.659332  -0.470469
   58  SI 1XXXY  -0.003317   0.000019  -0.000000   0.000000   0.000000
   59  SI 1XXXZ   0.007876   0.001153  -0.000000   0.000000   0.000000
   60  SI 1YYYX  -0.003317   0.000019  -0.000000   0.000000   0.000000
   61  SI 1YYYZ  -0.001056   0.008533   0.000000  -0.000000   0.000000
   62  SI 1ZZZX   0.007876   0.001153  -0.000000   0.000000   0.000000
   63  SI 1ZZZY  -0.001056   0.008533   0.000000  -0.000000   0.000000
   64  SI 1XXYY   0.000000   0.000000   0.039957   8.578010  -0.021692
   65  SI 1XXZZ   0.000000   0.000000   0.039957   8.578010  -0.021692
   66  SI 1YYZZ   0.000000   0.000000   0.039957   8.578010  -0.021692
   67  SI 1XXYZ  -0.004951   0.039994  -0.000000  -0.000000   0.000000
   68  SI 1YYXZ   0.036912   0.005403  -0.000000   0.000000   0.000000
   69  SI 1ZZXY  -0.015546   0.000090  -0.000000   0.000000   0.000000
   70  H  2  S   -0.061540  -0.170537   0.039035 -12.013873   1.096501
   71  H  2  S   -0.476646  -1.320854  -2.161368   1.883706   0.787325
   72  H  2  S   -0.125346  -0.347352   0.593341   7.334134 -17.737981
   73  H  2  S   -0.002434  -0.006744  -0.035724   6.771819   1.254525
   74  H  2  X    0.025382   0.098323   0.227661   0.209490   3.772705
   75  H  2  Y    0.047193   0.080301   0.227661   0.209490   3.772705
   76  H  2  Z    0.019862   0.077533   0.227661   0.209490   3.772705
   77  H  2  X    0.004298   0.072119  -0.132610   0.420458  -0.520485
   78  H  2  Y    0.051223   0.033346  -0.132610   0.420458  -0.520485
   79  H  2  Z   -0.007578   0.027391  -0.132610   0.420458  -0.520485
   80  H  2  X   -0.001212  -0.015227   0.038312  -0.113071   0.116237
   81  H  2  Y   -0.010462  -0.007584   0.038312  -0.113071   0.116237
   82  H  2  Z    0.001129  -0.006410   0.038312  -0.113071   0.116237
   83  H  2 XX   -0.002422  -0.000391  -0.094875  -1.286249   0.426107
   84  H  2 YY    0.002504  -0.004462  -0.094875  -1.286249   0.426107
   85  H  2 ZZ   -0.003669  -0.005087  -0.094875  -1.286249   0.426107
   86  H  2 XY   -0.004109  -0.011946  -0.024614  -0.141142  -0.181603
   87  H  2 XZ   -0.004790  -0.012015  -0.024614  -0.141142  -0.181603
   88  H  2 YZ   -0.004246  -0.012465  -0.024614  -0.141142  -0.181603
   89  H  2 XX    0.000150   0.000047  -0.012363  -0.762948   0.034433
   90  H  2 YY   -0.000138   0.000285  -0.012363  -0.762948   0.034433
   91  H  2 ZZ    0.000223   0.000322  -0.012363  -0.762948   0.034433
   92  H  2 XY    0.000734   0.001719   0.001053   0.037977   0.017692
   93  H  2 XZ    0.000350   0.001680   0.001053   0.037977   0.017692
   94  H  2 YZ    0.000657   0.001427   0.001053   0.037977   0.017692
   95  H  2 XXX  -0.000213  -0.025074   0.063226  -0.179707   0.167164
   96  H  2 YYY  -0.019295  -0.009306   0.063226  -0.179707   0.167164
   97  H  2 ZZZ   0.004617  -0.006885   0.063226  -0.179707   0.167164
   98  H  2 XXY  -0.008644  -0.005722   0.029650  -0.066319   0.087979
   99  H  2 XXZ   0.001381  -0.004707   0.029650  -0.066319   0.087979
  100  H  2 YYX  -0.000865  -0.012150   0.029650  -0.066319   0.087979
  101  H  2 YYZ   0.001160  -0.004525   0.029650  -0.066319   0.087979
  102  H  2 ZZX  -0.000588  -0.012122   0.029650  -0.066319   0.087979
  103  H  2 ZZY  -0.008588  -0.005512   0.029650  -0.066319   0.087979
  104  H  2 XYZ  -0.000759  -0.002102   0.002749   0.009821   0.018585
  105  H  3  S    0.178111   0.169861   0.039035 -12.013873   1.096501
  106  H  3  S    1.379515   1.315614  -2.161368   1.883706   0.787325
  107  H  3  S    0.362779   0.345974   0.593341   7.334134 -17.737981
  108  H  3  S    0.007043   0.006717  -0.035724   6.771819   1.254525
  109  H  3  X    0.078348   0.098016  -0.227661  -0.209490  -3.772705
  110  H  3  Y    0.100159   0.079994  -0.227661  -0.209490  -3.772705
  111  H  3  Z   -0.089027  -0.077132   0.227661   0.209490   3.772705
  112  H  3  X    0.022952   0.072011   0.132610  -0.420458   0.520485
  113  H  3  Y    0.069877   0.033238   0.132610  -0.420458   0.520485
  114  H  3  Z   -0.045928  -0.027081  -0.132610   0.420458  -0.520485
  115  H  3  X   -0.005580  -0.015201  -0.038312   0.113071  -0.116237
  116  H  3  Y   -0.014830  -0.007558  -0.038312   0.113071  -0.116237
  117  H  3  Z    0.010109   0.006345   0.038312  -0.113071   0.116237
  118  H  3 XX    0.005906   0.000371  -0.094875  -1.286249   0.426107
  119  H  3 YY    0.000980   0.004441  -0.094875  -1.286249   0.426107
  120  H  3 ZZ    0.003494   0.005088  -0.094875  -1.286249   0.426107
  121  H  3 XY    0.012678   0.011897  -0.024614  -0.141142  -0.181603
  122  H  3 XZ   -0.012955  -0.011968   0.024614   0.141142   0.181603
  123  H  3 YZ   -0.012411  -0.012417   0.024614   0.141142   0.181603
  124  H  3 XX   -0.000371  -0.000045  -0.012363  -0.762948   0.034433
  125  H  3 YY   -0.000082  -0.000284  -0.012363  -0.762948   0.034433
  126  H  3 ZZ   -0.000229  -0.000322  -0.012363  -0.762948   0.034433
  127  H  3 XY   -0.001682  -0.001713   0.001053   0.037977   0.017692
  128  H  3 XZ    0.001525   0.001673  -0.001053  -0.037977  -0.017692
  129  H  3 YZ    0.001832   0.001420  -0.001053  -0.037977  -0.017692
  130  H  3 XXX  -0.004891  -0.025047  -0.063226   0.179707  -0.167164
  131  H  3 YYY  -0.023973  -0.009279  -0.063226   0.179707  -0.167164
  132  H  3 ZZZ   0.014234   0.006775   0.063226  -0.179707   0.167164
  133  H  3 XXY  -0.011705  -0.005705  -0.029650   0.066319  -0.087979
  134  H  3 XXZ   0.007622   0.004655   0.029650  -0.066319   0.087979
  135  H  3 YYX  -0.003927  -0.012132  -0.029650   0.066319  -0.087979
  136  H  3 YYZ   0.007843   0.004473   0.029650  -0.066319   0.087979
  137  H  3 ZZX  -0.003814  -0.012103  -0.029650   0.066319  -0.087979
  138  H  3 ZZY  -0.011813  -0.005493  -0.029650   0.066319  -0.087979
  139  H  3 XYZ   0.002196   0.002094   0.002749   0.009821   0.018585
  140  H  4  S   -0.215238   0.130026   0.039035 -12.013873   1.096501
  141  H  4  S   -1.667073   1.007081  -2.161368   1.883706   0.787325
  142  H  4  S   -0.438400   0.264838   0.593341   7.334134 -17.737981
  143  H  4  S   -0.008512   0.005142  -0.035724   6.771819   1.254525
  144  H  4  X   -0.100377   0.079916  -0.227661  -0.209490  -3.772705
  145  H  4  Y    0.117028  -0.056264   0.227661   0.209490   3.772705
  146  H  4  Z   -0.105897   0.059126  -0.227661  -0.209490  -3.772705
  147  H  4  X   -0.039993   0.065636   0.132610  -0.420458   0.520485
  148  H  4  Y    0.075818  -0.014751  -0.132610   0.420458  -0.520485
  149  H  4  Z   -0.051869   0.020908   0.132610  -0.420458   0.520485
  150  H  4  X    0.009159  -0.013709  -0.038312   0.113071  -0.116237
  151  H  4  Y   -0.016221   0.003678   0.038312  -0.113071   0.116237
  152  H  4  Z    0.011500  -0.004892  -0.038312   0.113071  -0.116237
  153  H  4 XX   -0.005851  -0.000820  -0.094875  -1.286249   0.426107
  154  H  4 YY   -0.002090   0.004522  -0.094875  -1.286249   0.426107
  155  H  4 ZZ   -0.004604   0.003876  -0.094875  -1.286249   0.426107
  156  H  4 XY    0.015278  -0.009109   0.024614   0.141142   0.181603
  157  H  4 XZ   -0.015556   0.009037  -0.024614  -0.141142  -0.181603
  158  H  4 YZ    0.015140  -0.009627   0.024614   0.141142   0.181603
  159  H  4 XX    0.000372   0.000030  -0.012363  -0.762948   0.034433
  160  H  4 YY    0.000152  -0.000283  -0.012363  -0.762948   0.034433
  161  H  4 ZZ    0.000299  -0.000245  -0.012363  -0.762948   0.034433
  162  H  4 XY   -0.002056   0.001310  -0.001053  -0.037977  -0.017692
  163  H  4 XZ    0.001900  -0.001350   0.001053   0.037977   0.017692
  164  H  4 YZ   -0.002134   0.001018  -0.001053  -0.037977  -0.017692
  165  H  4 XXX   0.010894  -0.023448  -0.063226   0.179707  -0.167164
  166  H  4 YYY  -0.025463   0.002755   0.063226  -0.179707   0.167164
  167  H  4 ZZZ   0.015724  -0.005259  -0.063226   0.179707  -0.167164
  168  H  4 XXY  -0.012733   0.002594   0.029650  -0.066319   0.087979
  169  H  4 XXZ   0.008650  -0.003643  -0.029650   0.066319  -0.087979
  170  H  4 YYX   0.006794  -0.011029  -0.029650   0.066319  -0.087979
  171  H  4 YYZ   0.008819  -0.003404  -0.029650   0.066319  -0.087979
  172  H  4 ZZX   0.006681  -0.011058  -0.029650   0.066319  -0.087979
  173  H  4 ZZY  -0.012789   0.002383   0.029650  -0.066319   0.087979
  174  H  4 XYZ  -0.002653   0.001603   0.002749   0.009821   0.018585
  175  H  5  S    0.098667  -0.129349   0.039035 -12.013873   1.096501
  176  H  5  S    0.764205  -1.001841  -2.161368   1.883706   0.787325
  177  H  5  S    0.200967  -0.263460   0.593341   7.334134 -17.737981
  178  H  5  S    0.003902  -0.005115  -0.035724   6.771819   1.254525
  179  H  5  X   -0.047411   0.079609   0.227661   0.209490   3.772705
  180  H  5  Y    0.064063  -0.055957  -0.227661  -0.209490  -3.772705
  181  H  5  Z    0.036731  -0.058725  -0.227661  -0.209490  -3.772705
  182  H  5  X   -0.021339   0.065528  -0.132610   0.420458  -0.520485
  183  H  5  Y    0.057164  -0.014643   0.132610  -0.420458   0.520485
  184  H  5  Z   -0.001637  -0.020598   0.132610  -0.420458   0.520485
  185  H  5  X    0.004791  -0.013683   0.038312  -0.113071   0.116237
  186  H  5  Y   -0.011853   0.003653  -0.038312   0.113071  -0.116237
  187  H  5  Z   -0.000262   0.004827  -0.038312   0.113071  -0.116237
  188  H  5 XX    0.002367   0.000840  -0.094875  -1.286249   0.426107
  189  H  5 YY   -0.001394  -0.004502  -0.094875  -1.286249   0.426107
  190  H  5 ZZ    0.004779  -0.003877  -0.094875  -1.286249   0.426107
  191  H  5 XY   -0.006709   0.009059   0.024614   0.141142   0.181603
  192  H  5 XZ   -0.007391   0.008990   0.024614   0.141142   0.181603
  193  H  5 YZ    0.006975  -0.009580  -0.024614  -0.141142  -0.181603
  194  H  5 XX   -0.000152  -0.000031  -0.012363  -0.762948   0.034433
  195  H  5 YY    0.000068   0.000282  -0.012363  -0.762948   0.034433
  196  H  5 ZZ   -0.000294   0.000245  -0.012363  -0.762948   0.034433
  197  H  5 XY    0.001108  -0.001305  -0.001053  -0.037977  -0.017692
  198  H  5 XZ    0.000725  -0.001344  -0.001053  -0.037977  -0.017692
  199  H  5 YZ   -0.000958   0.001011   0.001053   0.037977   0.017692
  200  H  5 XXX   0.006217  -0.023421   0.063226  -0.179707   0.167164
  201  H  5 YYY  -0.020785   0.002728  -0.063226   0.179707  -0.167164
  202  H  5 ZZZ   0.003127   0.005150  -0.063226   0.179707  -0.167164
  203  H  5 XXY  -0.009671   0.002576  -0.029650   0.066319  -0.087979
  204  H  5 XXZ   0.000353   0.003591  -0.029650   0.066319  -0.087979
  205  H  5 YYX   0.003732  -0.011011   0.029650  -0.066319   0.087979
  206  H  5 YYZ   0.000184   0.003351  -0.029650   0.066319  -0.087979
  207  H  5 ZZX   0.003456  -0.011039   0.029650  -0.066319   0.087979
  208  H  5 ZZY  -0.009563   0.002364  -0.029650   0.066319  -0.087979
  209  H  5 XYZ   0.001216  -0.001594   0.002749   0.009821   0.018585

                     11         12         13         14         15
                   18.0808    17.9235    17.9235    17.9235     0.5935
                     A          A          A          A          A   
    1  SI 1  S   20.054219  -0.000000  -0.000000   0.000000   0.075469
    2  SI 1  S    3.197683  -0.000000  -0.000000   0.000000  -6.786897
    3  SI 1  S   10.622867  -0.000000  -0.000000   0.000000  -8.846431
    4  SI 1  S  -20.764926   0.000000   0.000000  -0.000000  46.212915
    5  SI 1  X    0.000000  -1.128990   0.862717  -0.795381  -0.000000
    6  SI 1  Y   -0.000000  -1.163270  -0.967725   0.601532   0.000000
    7  SI 1  Z   -0.000000  -0.153995   0.985270   1.287268   0.000000
    8  SI 1  X    0.000000  -0.103304   0.078939  -0.072778   0.000000
    9  SI 1  Y   -0.000000  -0.106440  -0.088548   0.055041   0.000000
   10  SI 1  Z   -0.000000  -0.014091   0.090153   0.117786   0.000000
   11  SI 1  X   -0.000000   0.863205  -0.659617   0.608133  -0.000000
   12  SI 1  Y    0.000000   0.889414   0.739905  -0.459920  -0.000000
   13  SI 1  Z    0.000000   0.117742  -0.753319  -0.984221   0.000000
   14  SI 1  X    0.000000  -4.686884   3.581479  -3.301938   0.000000
   15  SI 1  Y   -0.000000  -4.829191  -4.017409   2.497197   0.000000
   16  SI 1  Z   -0.000000  -0.639293   4.090244   5.343957  -0.000000
   17  SI 1 XX   -1.847379   0.000000   0.000000  -0.000000  -0.079805
   18  SI 1 YY   -1.847379   0.000000   0.000000  -0.000000  -0.079805
   19  SI 1 ZZ   -1.847379   0.000000   0.000000  -0.000000  -0.079805
   20  SI 1 XY   -0.000000  -0.003625   0.023193   0.030301   0.000000
   21  SI 1 XZ   -0.000000  -0.027383  -0.022780   0.014160   0.000000
   22  SI 1 YZ    0.000000  -0.026576   0.020308  -0.018723   0.000000
   23  SI 1 XX   -7.367306   0.000000   0.000000  -0.000000  -2.312864
   24  SI 1 YY   -7.367306   0.000000   0.000000  -0.000000  -2.312864
   25  SI 1 ZZ   -7.367306   0.000000   0.000000  -0.000000  -2.312864
   26  SI 1 XY   -0.000000  -0.362201   2.317389   3.027699   0.000000
   27  SI 1 XZ   -0.000000  -2.736051  -2.276124   1.414825   0.000000
   28  SI 1 YZ    0.000000  -2.655424   2.029141  -1.870763   0.000000
   29  SI 1 XX    4.276454  -0.000000  -0.000000   0.000000 -12.045142
   30  SI 1 YY    4.276454  -0.000000  -0.000000   0.000000 -12.045142
   31  SI 1 ZZ    4.276454  -0.000000  -0.000000   0.000000 -12.045142
   32  SI 1 XY   -0.000000  -0.053409   0.341717   0.446458   0.000000
   33  SI 1 XZ   -0.000000  -0.403452  -0.335633   0.208627  -0.000000
   34  SI 1 YZ    0.000000  -0.391563   0.299213  -0.275859  -0.000000
   35  SI 1 XXX  -0.000000   0.147817  -0.112954   0.104138  -0.000000
   36  SI 1 YYY   0.000000   0.152305   0.126703  -0.078758  -0.000000
   37  SI 1 ZZZ   0.000000   0.020162  -0.129000  -0.168540   0.000000
   38  SI 1 XXY  -0.000000  -0.769411  -0.640074   0.397866   0.000000
   39  SI 1 XXZ  -0.000000  -0.101855   0.651678   0.851426   0.000000
   40  SI 1 YYX   0.000000  -0.746738   0.570619  -0.526081   0.000000
   41  SI 1 YYZ  -0.000000  -0.101855   0.651678   0.851426   0.000000
   42  SI 1 ZZX   0.000000  -0.746738   0.570619  -0.526081   0.000000
   43  SI 1 ZZY  -0.000000  -0.769411  -0.640074   0.397866   0.000000
   44  SI 1 XYZ  -0.283254   0.000000   0.000000  -0.000000  -0.008533
   45  SI 1 XXX  -0.000000   2.041002  -1.559630   1.437898  -0.000000
   46  SI 1 YYY   0.000000   2.102973   1.749465  -1.087457  -0.000000
   47  SI 1 ZZZ   0.000000   0.278394  -1.781182  -2.327138   0.000000
   48  SI 1 XXY   0.000000   0.283110   0.235520  -0.146398  -0.000000
   49  SI 1 XXZ   0.000000   0.037478  -0.239790  -0.313288   0.000000
   50  SI 1 YYX  -0.000000   0.274767  -0.209963   0.193575  -0.000000
   51  SI 1 YYZ   0.000000   0.037478  -0.239790  -0.313288   0.000000
   52  SI 1 ZZX  -0.000000   0.274767  -0.209963   0.193575  -0.000000
   53  SI 1 ZZY   0.000000   0.283110   0.235520  -0.146398  -0.000000
   54  SI 1 XYZ   1.338443  -0.000000  -0.000000   0.000000  -0.070075
   55  SI 1XXXX   1.810131  -0.000000  -0.000000   0.000000  -0.446089
   56  SI 1YYYY   1.810131  -0.000000  -0.000000   0.000000  -0.446089
   57  SI 1ZZZZ   1.810131  -0.000000  -0.000000   0.000000  -0.446089
   58  SI 1XXXY  -0.000000  -0.002411   0.015423   0.020151  -0.000000
   59  SI 1XXXZ  -0.000000  -0.018210  -0.015149   0.009416   0.000000
   60  SI 1YYYX  -0.000000  -0.002411   0.015423   0.020151  -0.000000
   61  SI 1YYYZ   0.000000  -0.017673   0.013505  -0.012451   0.000000
   62  SI 1ZZZX  -0.000000  -0.018210  -0.015149   0.009416   0.000000
   63  SI 1ZZZY   0.000000  -0.017673   0.013505  -0.012451   0.000000
   64  SI 1XXYY   1.491248  -0.000000  -0.000000   0.000000  -0.259878
   65  SI 1XXZZ   1.491248  -0.000000  -0.000000   0.000000  -0.259878
   66  SI 1YYZZ   1.491248  -0.000000  -0.000000   0.000000  -0.259878
   67  SI 1XXYZ   0.000000  -0.528132   0.403572  -0.372072   0.000000
   68  SI 1YYXZ  -0.000000  -0.544168  -0.452694   0.281392   0.000000
   69  SI 1ZZXY  -0.000000  -0.072037   0.460901   0.602173  -0.000000
   70  H  2  S   34.566133  52.744113 -18.979469 -23.575407   0.126718
   71  H  2  S   -7.823394 -11.738155   4.223864   5.246685  -2.743466
   72  H  2  S  -24.616190 -30.781620  11.076474  13.758677   1.772206
   73  H  2  S  -19.906949 -29.041897  10.450451  12.981061  -0.181848
   74  H  2  X    0.969075  -0.332573   0.218458  -0.132689  -0.067610
   75  H  2  Y    0.969075  -0.339991  -0.177676   0.169623  -0.067610
   76  H  2  Z    0.969075  -0.121570   0.244980   0.318026  -0.067610
   77  H  2  X   -3.518821  -7.420548   2.386265   4.125510  -0.022116
   78  H  2  Y   -3.518821  -7.399224   3.524923   3.256537  -0.022116
   79  H  2  Z   -3.518821  -8.027061   2.310029   2.829963  -0.022116
   80  H  2  X    0.923274   1.911341  -0.616558  -1.057163   0.002966
   81  H  2  Y    0.923274   1.905993  -0.902157  -0.839207   0.002966
   82  H  2  Z    0.923274   2.063467  -0.597436  -0.732213   0.002966
   83  H  2 XX    3.574101   5.958904  -2.130167  -2.703618  -0.074247
   84  H  2 YY    3.574101   5.957846  -2.186663  -2.660502  -0.074247
   85  H  2 ZZ    3.574101   5.988997  -2.126384  -2.639337  -0.074247
   86  H  2 XY    0.161351   0.728557  -0.272176  -0.338767   0.024476
   87  H  2 XZ    0.161351   0.739424  -0.251148  -0.331384   0.024476
   88  H  2 YZ    0.161351   0.739055  -0.270856  -0.316343   0.024476
   89  H  2 XX    2.302915   3.521259  -1.274391  -1.553134  -0.004426
   90  H  2 YY    2.302915   3.521807  -1.245121  -1.575471  -0.004426
   91  H  2 ZZ    2.302915   3.505669  -1.276350  -1.586437  -0.004426
   92  H  2 XY   -0.061847  -0.099105   0.047123   0.059316  -0.001949
   93  H  2 XZ   -0.061847  -0.111545   0.023051   0.050863  -0.001949
   94  H  2 YZ   -0.061847  -0.111122   0.045612   0.033646  -0.001949
   95  H  2 XXX   1.687615   3.132302  -0.985580  -1.803204   0.004779
   96  H  2 YYY   1.687615   3.121672  -1.553204  -1.370018   0.004779
   97  H  2 ZZZ   1.687615   3.434650  -0.947576  -1.157370   0.004779
   98  H  2 XXY   0.708898   1.327240  -0.643915  -0.558866   0.002438
   99  H  2 XXZ   0.708898   1.441906  -0.422031  -0.480958   0.002438
  100  H  2 YYX   0.708898   1.331797  -0.400596  -0.744556   0.002438
  101  H  2 YYZ   0.708898   1.442569  -0.386672  -0.507942   0.002438
  102  H  2 ZZX   0.708898   1.312301  -0.438321  -0.757802   0.002438
  103  H  2 ZZY   0.708898   1.308407  -0.646282  -0.599096   0.002438
  104  H  2 XYZ  -0.029826  -0.168501   0.060633   0.075316   0.001325
  105  H  3  S   34.566133 -46.103497 -23.507671 -31.934597   0.126718
  106  H  3  S   -7.823394  10.260292   5.231611   7.107016  -2.743466
  107  H  3  S  -24.616190  26.906137  13.719146  18.637125   1.772206
  108  H  3  S  -19.906949  25.385449  12.943764  17.583788  -0.181848
  109  H  3  X   -0.969075  -0.321463   0.147375  -0.225560   0.067610
  110  H  3  Y   -0.969075  -0.328881  -0.248759   0.076752   0.067610
  111  H  3  Z    0.969075   0.043807   0.252556   0.332011  -0.067610
  112  H  3  X    3.518821  -6.397860  -4.156966  -4.423307   0.022116
  113  H  3  Y    3.518821  -6.376536  -3.018308  -5.292280   0.022116
  114  H  3  Z   -3.518821   7.195963   3.007394   4.117320  -0.022116
  115  H  3  X   -0.923274   1.648521   1.064989   1.139799  -0.002966
  116  H  3  Y   -0.923274   1.643172   0.779390   1.357756  -0.002966
  117  H  3  Z    0.923274  -1.848701  -0.776652  -1.063051   0.002966
  118  H  3 XX    3.574101  -5.204276  -2.697999  -3.604443  -0.074247
  119  H  3 YY    3.574101  -5.203218  -2.641503  -3.647559  -0.074247
  120  H  3 ZZ    3.574101  -5.243875  -2.640961  -3.589261  -0.074247
  121  H  3 XY    0.161351  -0.633723  -0.334582  -0.453970   0.024476
  122  H  3 XZ   -0.161351   0.647905   0.334393   0.433634  -0.024476
  123  H  3 YZ   -0.161351   0.647536   0.314685   0.448674  -0.024476
  124  H  3 XX    2.302915  -3.080197  -1.547559  -2.133779  -0.004426
  125  H  3 YY    2.302915  -3.080745  -1.576828  -2.111442  -0.004426
  126  H  3 ZZ    2.302915  -3.059681  -1.577109  -2.141645  -0.004426
  127  H  3 XY   -0.061847   0.083070   0.055468   0.074722  -0.001949
  128  H  3 XZ    0.061847  -0.099306  -0.055252  -0.051441   0.001949
  129  H  3 YZ    0.061847  -0.098884  -0.032691  -0.068659   0.001949
  130  H  3 XXX  -1.687615   2.693858   1.819613   1.861817  -0.004779
  131  H  3 YYY  -1.687615   2.683228   1.251989   2.295002  -0.004779
  132  H  3 ZZZ   1.687615  -3.091715  -1.246548  -1.709282   0.004779
  133  H  3 XXY  -0.708898   1.146244   0.514115   0.954115  -0.002438
  134  H  3 XXZ   0.708898  -1.295901  -0.512121  -0.739524   0.002438
  135  H  3 YYX  -0.708898   1.150801   0.757434   0.768425  -0.002438
  136  H  3 YYZ   0.708898  -1.296563  -0.547480  -0.712540   0.002438
  137  H  3 ZZX  -0.708898   1.125355   0.757773   0.804910  -0.002438
  138  H  3 ZZY  -0.708898   1.121461   0.549812   0.963617  -0.002438
  139  H  3 XYZ  -0.029826   0.147286   0.075100   0.102021   0.001325
  140  H  4  S   34.566133  -2.581202  60.710049  -2.364068   0.126718
  141  H  4  S   -7.823394   0.574444 -13.510967   0.526121  -2.743466
  142  H  4  S  -24.616190   1.506397 -35.430564   1.379677   1.772206
  143  H  4  S  -19.906949   1.421258 -33.428091   1.301700  -0.181848
  144  H  4  X   -0.969075  -0.248648   0.288275  -0.176087   0.067610
  145  H  4  Y    0.969075  -0.247430  -0.311000   0.134135  -0.067610
  146  H  4  Z   -0.969075  -0.037645   0.314797   0.274628   0.067610
  147  H  4  X    3.518821   0.304790   8.812982   0.130702   0.022116
  148  H  4  Y   -3.518821   1.121150  -8.747660  -0.010115  -0.022116
  149  H  4  Z    3.518821  -0.301723   8.736746  -1.164845   0.022116
  150  H  4  X   -0.923274  -0.073995  -2.268161  -0.030536  -0.002966
  151  H  4  Y    0.923274  -0.283660   2.251777   0.000291   0.002966
  152  H  4  Z   -0.923274   0.078131  -2.249040   0.294414  -0.002966
  153  H  4 XX    3.574101  -0.258477   6.872358  -0.244099  -0.074247
  154  H  4 YY    3.574101  -0.329227   6.869117  -0.250083  -0.074247
  155  H  4 ZZ    3.574101  -0.288570   6.868575  -0.308380  -0.074247
  156  H  4 XY   -0.161351   0.037231  -0.847291   0.018721  -0.024476
  157  H  4 XZ    0.161351  -0.023048   0.847102  -0.039057   0.024476
  158  H  4 YZ   -0.161351   0.047729  -0.845971   0.041144  -0.024476
  159  H  4 XX    2.302915  -0.189494   4.046090  -0.169737  -0.004426
  160  H  4 YY    2.302915  -0.152840   4.047769  -0.166638  -0.004426
  161  H  4 ZZ    2.302915  -0.173903   4.048050  -0.136435  -0.004426
  162  H  4 XY    0.061847  -0.006655   0.124032   0.011509   0.001949
  163  H  4 XZ   -0.061847  -0.009581  -0.123816   0.011771  -0.001949
  164  H  4 YZ    0.061847  -0.018673   0.122522  -0.014161   0.001949
  165  H  4 XXX  -1.687615  -0.179680  -3.740821  -0.090563  -0.004779
  166  H  4 YYY   1.687615  -0.531155   3.708257   0.030450   0.004779
  167  H  4 ZZZ  -1.687615   0.122668  -3.702817   0.555271  -0.004779
  168  H  4 XXY   0.708898  -0.224323   1.561433  -0.011458   0.002438
  169  H  4 XXZ  -0.708898   0.074666  -1.559439   0.226049  -0.002438
  170  H  4 YYX  -0.708898  -0.080385  -1.575391  -0.014310  -0.002438
  171  H  4 YYZ  -0.708898   0.030387  -1.561468   0.222304  -0.002438
  172  H  4 ZZX  -0.708898  -0.054939  -1.575730  -0.050796  -0.002438
  173  H  4 ZZY   0.708898  -0.205490   1.563800   0.028772   0.002438
  174  H  4 XYZ  -0.029826   0.008246  -0.193949   0.007552   0.001325
  175  H  5  S   34.566133  -4.059414 -18.222910  57.874072   0.126718
  176  H  5  S   -7.823394   0.903419   4.055492 -12.879822  -2.743466
  177  H  5  S  -24.616190   2.369086  10.634944 -33.775479   1.772206
  178  H  5  S  -19.906949   2.235190  10.033875 -31.866549  -0.181848
  179  H  5  X    0.969075  -0.237538   0.217192  -0.268958  -0.067610
  180  H  5  Y   -0.969075  -0.258540  -0.239917   0.227006   0.067610
  181  H  5  Z   -0.969075  -0.040118   0.182738   0.375409   0.067610
  182  H  5  X   -3.518821   1.327477   2.269751  -8.418115  -0.022116
  183  H  5  Y    3.518821   0.098462  -2.204429   8.538702   0.022116
  184  H  5  Z    3.518821  -0.529375  -3.419323   8.112128   0.022116
  185  H  5  X    0.923274  -0.336816  -0.586615   2.166426   0.002966
  186  H  5  Y   -0.923274  -0.020839   0.570231  -2.196672  -0.002966
  187  H  5  Z   -0.923274   0.136635   0.874951  -2.089678  -0.002966
  188  H  5 XX    3.574101  -0.496151  -2.044193   6.552161  -0.074247
  189  H  5 YY    3.574101  -0.425401  -2.040951   6.558144  -0.074247
  190  H  5 ZZ    3.574101  -0.456552  -2.101230   6.536979  -0.074247
  191  H  5 XY   -0.161351   0.057603   0.240533  -0.811458  -0.024476
  192  H  5 XZ   -0.161351   0.068470   0.261560  -0.804075  -0.024476
  193  H  5 YZ    0.161351  -0.043790  -0.260430   0.806162   0.024476
  194  H  5 XX    2.302915  -0.251569  -1.224141   3.856651  -0.004426
  195  H  5 YY    2.302915  -0.288223  -1.225820   3.853551  -0.004426
  196  H  5 ZZ    2.302915  -0.272084  -1.194591   3.864516  -0.004426
  197  H  5 XY    0.061847  -0.009380  -0.021441   0.122528   0.001949
  198  H  5 XZ    0.061847  -0.021819  -0.045512   0.114076   0.001949
  199  H  5 YZ   -0.061847  -0.006434   0.044218  -0.116465  -0.001949
  200  H  5 XXX   1.687615  -0.618123  -0.935628   3.574458   0.004779
  201  H  5 YYY  -1.687615  -0.092711   0.903065  -3.634571  -0.004779
  202  H  5 ZZZ  -1.687615   0.220267   1.508693  -3.421923  -0.004779
  203  H  5 XXY  -0.708898  -0.043327   0.403403  -1.524439  -0.002438
  204  H  5 XXZ  -0.708898   0.071339   0.625287  -1.446531  -0.002438
  205  H  5 YYX   0.708898  -0.261381  -0.417362   1.498671   0.002438
  206  H  5 YYZ  -0.708898   0.115618   0.627316  -1.442786  -0.002438
  207  H  5 ZZX   0.708898  -0.241885  -0.379636   1.511917   0.002438
  208  H  5 ZZY  -0.708898  -0.018544   0.367706  -1.533940  -0.002438
  209  H  5 XYZ  -0.029826   0.012969   0.058216  -0.184889   0.001325

                     16         17         18         19         20
                   11.8092    11.8092    11.8092    11.1033     1.4671
                     A          A          A          A          A   
    1  SI 1  S    0.000000  -0.000000  -0.000000  35.003082  -0.000000
    2  SI 1  S    0.000000  -0.000000  -0.000000  16.476580  -0.000000
    3  SI 1  S   -0.000000   0.000000   0.000000 -15.991234   0.000000
    4  SI 1  S   -0.000000   0.000000   0.000000 -21.051013   0.000000
    5  SI 1  X    0.740666   0.849503  -0.992960  -0.000000  -3.372319
    6  SI 1  Y   -0.976892   1.118030   0.227823   0.000000  -1.981928
    7  SI 1  Z    0.867933   0.533447   1.103784  -0.000000  -1.918926
    8  SI 1  X    0.012611   0.014464  -0.016906  -0.000000  -0.356030
    9  SI 1  Y   -0.016632   0.019035   0.003879  -0.000000  -0.209240
   10  SI 1  Z    0.014777   0.009082   0.018793  -0.000000  -0.202589
   11  SI 1  X   -0.188242  -0.215903   0.252363  -0.000000   0.697199
   12  SI 1  Y    0.248279  -0.284150  -0.057902  -0.000000   0.409747
   13  SI 1  Z   -0.220587  -0.135577  -0.280529   0.000000   0.396722
   14  SI 1  X    5.257346   6.029885  -7.048161  -0.000000  -4.529004
   15  SI 1  Y   -6.934107   7.935923   1.617118   0.000000  -2.661717
   16  SI 1  Z    6.160703   3.786474   7.834803   0.000000  -2.577106
   17  SI 1 XX   -0.000000   0.000000   0.000000  -1.864501   0.000000
   18  SI 1 YY   -0.000000   0.000000   0.000000  -1.864501   0.000000
   19  SI 1 ZZ   -0.000000   0.000000   0.000000  -1.864501   0.000000
   20  SI 1 XY   -0.549446  -0.337699  -0.698751  -0.000000  -0.287007
   21  SI 1 XZ    0.618422  -0.707770  -0.144224  -0.000000  -0.296430
   22  SI 1 YZ   -0.468879  -0.537779   0.628594  -0.000000  -0.504386
   23  SI 1 XX    0.000000   0.000000   0.000000  -2.856260  -0.000000
   24  SI 1 YY    0.000000   0.000000   0.000000  -2.856260  -0.000000
   25  SI 1 ZZ    0.000000   0.000000   0.000000  -2.856260  -0.000000
   26  SI 1 XY    7.080298   4.351673   9.004287   0.000000  -0.405441
   27  SI 1 XZ   -7.969146   9.120501   1.858502   0.000000  -0.418753
   28  SI 1 YZ    6.042099   6.929953  -8.100225  -0.000000  -0.712522
   29  SI 1 XX    0.000000  -0.000000  -0.000000   3.103226   0.000000
   30  SI 1 YY    0.000000  -0.000000  -0.000000   3.103226   0.000000
   31  SI 1 ZZ    0.000000  -0.000000  -0.000000   3.103226   0.000000
   32  SI 1 XY    0.951987   0.585108   1.210679  -0.000000  -2.225727
   33  SI 1 XZ   -1.071498   1.226305   0.249886   0.000000  -2.298802
   34  SI 1 YZ    0.812395   0.931773  -1.089123  -0.000000  -3.911493
   35  SI 1 XXX   0.321692   0.368963  -0.431271  -0.000000  -0.465776
   36  SI 1 YYY  -0.424292   0.485592   0.098950   0.000000  -0.273738
   37  SI 1 ZZZ   0.376968   0.231691   0.479404  -0.000000  -0.265037
   38  SI 1 XXY  -2.124015   2.430886   0.495346   0.000000  -0.217258
   39  SI 1 XXZ   1.887111   1.159851   2.399911   0.000000  -0.210352
   40  SI 1 YYX   1.610400   1.847039  -2.158952  -0.000000  -0.369672
   41  SI 1 YYZ   1.887111   1.159851   2.399911   0.000000  -0.210352
   42  SI 1 ZZX   1.610400   1.847039  -2.158952  -0.000000  -0.369672
   43  SI 1 ZZY  -2.124015   2.430886   0.495346   0.000000  -0.217258
   44  SI 1 XYZ   0.000000  -0.000000  -0.000000   3.629989   0.000000
   45  SI 1 XXX  -1.370509  -1.571898   1.837347   0.000000  -0.362443
   46  SI 1 YYY   1.807615  -2.068773  -0.421558  -0.000000  -0.213010
   47  SI 1 ZZZ  -1.606000  -0.987076  -2.042413  -0.000000  -0.206238
   48  SI 1 XXY  -0.192598   0.220424   0.044916   0.000000  -1.174835
   49  SI 1 XXZ   0.171117   0.105171   0.217616  -0.000000  -1.137489
   50  SI 1 YYX   0.146026   0.167483  -0.195766  -0.000000  -1.999023
   51  SI 1 YYZ   0.171117   0.105171   0.217616  -0.000000  -1.137489
   52  SI 1 ZZX   0.146026   0.167483  -0.195766  -0.000000  -1.999023
   53  SI 1 ZZY  -0.192598   0.220424   0.044916   0.000000  -1.174835
   54  SI 1 XYZ   0.000000  -0.000000  -0.000000   1.626508   0.000000
   55  SI 1XXXX  -0.000000  -0.000000  -0.000000   2.694298  -0.000000
   56  SI 1YYYY  -0.000000  -0.000000  -0.000000   2.694298  -0.000000
   57  SI 1ZZZZ  -0.000000  -0.000000  -0.000000   2.694298  -0.000000
   58  SI 1XXXY  -0.980763  -0.602794  -1.247274  -0.000000  -0.577581
   59  SI 1XXXZ   1.103886  -1.263372  -0.257440  -0.000000  -0.596544
   60  SI 1YYYX  -0.980763  -0.602794  -1.247274  -0.000000  -0.577581
   61  SI 1YYYZ  -0.836952  -0.959937   1.122043  -0.000000  -1.015041
   62  SI 1ZZZX   1.103886  -1.263372  -0.257440  -0.000000  -0.596544
   63  SI 1ZZZY  -0.836952  -0.959937   1.122043  -0.000000  -1.015041
   64  SI 1XXYY   0.000000  -0.000000  -0.000000   2.578664  -0.000000
   65  SI 1XXZZ   0.000000  -0.000000  -0.000000   2.578664  -0.000000
   66  SI 1YYZZ   0.000000  -0.000000  -0.000000   2.578664  -0.000000
   67  SI 1XXYZ   0.608065   0.697416  -0.815190  -0.000000  -0.674353
   68  SI 1YYXZ  -0.801999   0.917869   0.187036   0.000000  -0.396320
   69  SI 1ZZXY   0.712547   0.437944   0.906173  -0.000000  -0.383722
   70  H  2  S    0.021302   0.084337   0.011420  -1.484754   0.279756
   71  H  2  S   -0.071420  -0.282757  -0.038287   0.431675   2.077210
   72  H  2  S   -1.510135  -5.978746  -0.809556  -2.702525  13.511120
   73  H  2  S   -1.372114  -5.432308  -0.735565  -1.430155  -0.542060
   74  H  2  X    0.502922   1.442403  -0.096577   0.854180  -3.540747
[...]
  142  H  4  S    0.002971  -0.673759   0.000000  -0.000000
  143  H  4  S    0.003136  -0.249660   0.000000  -0.000000
  144  H  4  X    0.003202  -0.012877  -0.007577   0.032262
  145  H  4  Y    0.012884   0.210476   0.024151   0.022693
  146  H  4  Z    0.008731   0.006977   0.031728  -0.009569
  147  H  4  X    0.025083  -0.121955   0.005265  -0.022415
  148  H  4  Y    0.070439  -0.073258  -0.016780  -0.015767
  149  H  4  Z    0.057917  -0.141569  -0.022045   0.006648
  150  H  4  X   -0.002353   0.028039  -0.000191   0.000813
  151  H  4  Y   -0.003763   0.006439   0.000609   0.000572
  152  H  4  Z   -0.004455   0.031503   0.000800  -0.000241
  153  H  4 XX   -0.012808   0.063932   0.000477  -0.002033
  154  H  4 YY    0.045645   0.024857   0.001522   0.001430
  155  H  4 ZZ   -0.032900   0.067858  -0.001999   0.000603
  156  H  4 XY    0.055340   0.082814   0.001614  -0.000487
  157  H  4 XZ    0.077399   0.035345   0.001229   0.001154
  158  H  4 YZ    0.021385   0.072026  -0.000385   0.001641
  159  H  4 XX    0.018652  -0.006121   0.000184  -0.000782
  160  H  4 YY   -0.066800   0.024982   0.000586   0.000550
  161  H  4 ZZ    0.048024  -0.009246  -0.000769   0.000232
  162  H  4 XY   -0.030733  -0.067755  -0.001527   0.000460
  163  H  4 XZ   -0.042292  -0.046124  -0.001162  -0.001092
  164  H  4 YZ   -0.012053  -0.057358   0.000365  -0.001553
  165  H  4 XXX  -0.025319   0.058864  -0.000639   0.002722
  166  H  4 YYY  -0.081710   0.034807   0.002037   0.001915
  167  H  4 ZZZ  -0.062107   0.068276   0.002677  -0.000807
  168  H  4 XXY   0.005587   0.021333   0.000067   0.001765
  169  H  4 XXZ   0.049677   0.016787   0.000846  -0.001550
  170  H  4 YYX  -0.089171   0.031732   0.000920   0.001507
  171  H  4 YYZ  -0.075034   0.035213   0.001562   0.000824
  172  H  4 ZZX   0.078406   0.011455  -0.001495   0.000940
  173  H  4 ZZY  -0.037279   0.023184   0.001765  -0.000043
  174  H  4 XYZ  -0.000192   0.008293   0.000000  -0.000000
  175  H  5  S   -6.985492   7.002629   0.000000   0.000000
  176  H  5  S    1.222553  -1.669544  -0.000000   0.000000
  177  H  5  S    3.656795  -7.194458   0.000000  -0.000000
  178  H  5  S    3.860479  -2.665898   0.000000  -0.000000
  179  H  5  X    0.399898   0.885337   0.007577  -0.032262
  180  H  5  Y   -0.383812  -0.687737  -0.024151  -0.022693
  181  H  5  Z   -0.387321  -0.737408   0.031728  -0.009569
  182  H  5  X   -5.097187   0.563441  -0.005265   0.022415
  183  H  5  Y    5.192710  -0.758654   0.016780   0.015767
  184  H  5  Z    5.171872  -0.709584  -0.022045   0.006648
  185  H  5  X    1.246117  -0.168917   0.000191  -0.000813
  186  H  5  Y   -1.252233   0.203396  -0.000609  -0.000572
  187  H  5  Z   -1.250898   0.194729   0.000800  -0.000241
  188  H  5 XX    0.008471   0.534789   0.000477  -0.002033
  189  H  5 YY   -0.049983   0.573864   0.001522   0.001430
  190  H  5 ZZ   -0.037231   0.564042  -0.001999   0.000603
  191  H  5 XY   -0.258353   0.443125   0.001614  -0.000487
  192  H  5 XZ   -0.236803   0.470115  -0.001229  -0.001154
  193  H  5 YZ    0.335587  -0.362744   0.000385  -0.001641
  194  H  5 XX   -0.101318   0.052350   0.000184  -0.000782
  195  H  5 YY   -0.015866   0.021247   0.000586   0.000550
  196  H  5 ZZ   -0.034507   0.029065  -0.000769   0.000232
  197  H  5 XY   -0.213193  -0.298305  -0.001527   0.000460
  198  H  5 XZ   -0.225048  -0.324317   0.001162   0.001092
  199  H  5 YZ    0.170703   0.220836  -0.000365   0.001553
  200  H  5 XXX   2.281571  -0.274048   0.000639  -0.002722
  201  H  5 YYY  -2.388600   0.367719  -0.002037  -0.001915
  202  H  5 ZZZ  -2.365252   0.344173   0.002677  -0.000807
  203  H  5 XXY  -0.966170   0.115366  -0.000067  -0.001765
  204  H  5 XXZ  -0.975142   0.106659   0.000846  -0.001550
  205  H  5 YYX   0.882586  -0.062301  -0.000920  -0.001507
  206  H  5 YYZ  -0.850431   0.088233   0.001562   0.000824
  207  H  5 ZZX   0.909792  -0.066933   0.001495  -0.000940
  208  H  5 ZZY  -0.868665   0.101572  -0.001765   0.000043
  209  H  5 XYZ  -0.236527   0.088555   0.000000  -0.000000
 ...... END OF RHF CALCULATION ......
 STEP CPU TIME =    16.18 TOTAL CPU TIME =       25.2 (    0.4 MIN)
 TOTAL WALL CLOCK TIME=       31.4 SECONDS, CPU UTILIZATION IS  80.37%

     ----------------------------------------------------------------
     PROPERTY VALUES FOR THE RHF   SELF-CONSISTENT FIELD WAVEFUNCTION
     ----------------------------------------------------------------

          -----------------
          ENERGY COMPONENTS
          -----------------

         WAVEFUNCTION NORMALIZATION =       1.0000000000

                ONE ELECTRON ENERGY =     -21.8566946809
                TWO ELECTRON ENERGY =       8.7347217137
           NUCLEAR REPULSION ENERGY =       7.0352112604
                                      ------------------
                       TOTAL ENERGY =      -6.0867617068

 ELECTRON-ELECTRON POTENTIAL ENERGY =       8.7347217137
  NUCLEUS-ELECTRON POTENTIAL ENERGY =     -25.6982503550
   NUCLEUS-NUCLEUS POTENTIAL ENERGY =       7.0352112604
                                      ------------------
             TOTAL POTENTIAL ENERGY =      -9.9283173809
               TOTAL KINETIC ENERGY =       3.8415556741
                 VIRIAL RATIO (V/T) =       2.5844522957

          ---------------------------------------
          MULLIKEN AND LOWDIN POPULATION ANALYSES
          ---------------------------------------

     ATOMIC MULLIKEN POPULATION IN EACH MOLECULAR ORBITAL

                      1          2          3          4

                  2.000000   2.000000   2.000000   2.000000

    1             1.193487   0.777949   0.777949   0.777949
    2             0.201628   0.399548   0.026753   0.490237
    3             0.201628   0.141865   0.079764   0.694909
    4             0.201628   0.045973   0.866334   0.004231
    5             0.201628   0.634666   0.249199   0.032673

               ----- POPULATIONS IN EACH AO -----
                             MULLIKEN      LOWDIN
              1  SI 1  S      1.49704     0.14094
              2  SI 1  S      0.04963     0.02649
              3  SI 1  S     -0.10325     0.09391
              4  SI 1  S     -0.45891     0.09773
              5  SI 1  X      0.30680     0.16684
              6  SI 1  Y      0.30680     0.16684
              7  SI 1  Z      0.30680     0.16684
              8  SI 1  X     -0.01847     0.01119
              9  SI 1  Y     -0.01847     0.01119
             10  SI 1  Z     -0.01847     0.01119
             11  SI 1  X      0.12375     0.06408
             12  SI 1  Y      0.12375     0.06408
             13  SI 1  Z      0.12375     0.06408
             14  SI 1  X      0.26479     0.14179
             15  SI 1  Y      0.26479     0.14179
             16  SI 1  Z      0.26479     0.14179
             17  SI 1 XX     -0.00350     0.03126
             18  SI 1 YY     -0.00350     0.03126
             19  SI 1 ZZ     -0.00350     0.03126
             20  SI 1 XY      0.01203     0.00634
             21  SI 1 XZ      0.01203     0.00634
             22  SI 1 YZ      0.01203     0.00634
             23  SI 1 XX      0.02927     0.07332
             24  SI 1 YY      0.02927     0.07332
             25  SI 1 ZZ      0.02927     0.07332
             26  SI 1 XY      0.01058     0.02377
             27  SI 1 XZ      0.01058     0.02377
             28  SI 1 YZ      0.01058     0.02377
             29  SI 1 XX      0.03923     0.04182
             30  SI 1 YY      0.03923     0.04182
             31  SI 1 ZZ      0.03923     0.04182
             32  SI 1 XY      0.03287     0.04650
             33  SI 1 XZ      0.03287     0.04650
             34  SI 1 YZ      0.03287     0.04650
             35  SI 1 XXX    -0.01455     0.07415
             36  SI 1 YYY    -0.01455     0.07415
             37  SI 1 ZZZ    -0.01455     0.07415
             38  SI 1 XXY     0.00304     0.05021
             39  SI 1 XXZ     0.00304     0.05021
             40  SI 1 YYX     0.00304     0.05021
             41  SI 1 YYZ     0.00304     0.05021
             42  SI 1 ZZX     0.00304     0.05021
             43  SI 1 ZZY     0.00304     0.05021
             44  SI 1 XYZ     0.00554     0.00245
             45  SI 1 XXX     0.00065     0.09749
             46  SI 1 YYY     0.00065     0.09749
             47  SI 1 ZZZ     0.00065     0.09749
             48  SI 1 XXY     0.01069     0.08021
             49  SI 1 XXZ     0.01069     0.08021
             50  SI 1 YYX     0.01069     0.08021
             51  SI 1 YYZ     0.01069     0.08021
             52  SI 1 ZZX     0.01069     0.08021
             53  SI 1 ZZY     0.01069     0.08021
             54  SI 1 XYZ     0.00680     0.01289
             55  SI 1XXXX    -0.00471     0.03608
             56  SI 1YYYY    -0.00471     0.03608
             57  SI 1ZZZZ    -0.00471     0.03608
             58  SI 1XXXY     0.01226     0.01999
             59  SI 1XXXZ     0.01226     0.01999
             60  SI 1YYYX     0.01226     0.01999
             61  SI 1YYYZ     0.01226     0.01999
             62  SI 1ZZZX     0.01226     0.01999
             63  SI 1ZZZY     0.01226     0.01999
             64  SI 1XXYY     0.00525     0.05225
             65  SI 1XXZZ     0.00525     0.05225
             66  SI 1YYZZ     0.00525     0.05225
             67  SI 1XXYZ     0.00751     0.02034
             68  SI 1YYXZ     0.00751     0.02034
             69  SI 1ZZXY     0.00751     0.02034
             70  H  2  S      1.49500     0.22840
             71  H  2  S     -0.14789     0.11089
             72  H  2  S     -0.20303     0.17695
             73  H  2  S     -0.05729     0.17163
             74  H  2  X      0.00388     0.00876
             75  H  2  Y      0.00388     0.00876
             76  H  2  Z      0.00388     0.00876
             77  H  2  X      0.00206     0.00136
             78  H  2  Y      0.00206     0.00136
             79  H  2  Z      0.00206     0.00136
             80  H  2  X      0.00012     0.00015
             81  H  2  Y      0.00012     0.00015
             82  H  2  Z      0.00012     0.00015
             83  H  2 XX      0.00361     0.05441
             84  H  2 YY      0.00361     0.05441
             85  H  2 ZZ      0.00361     0.05441
             86  H  2 XY      0.00020     0.00120
             87  H  2 XZ      0.00020     0.00120
             88  H  2 YZ      0.00020     0.00120
             89  H  2 XX      0.00065     0.04099
             90  H  2 YY      0.00065     0.04099
             91  H  2 ZZ      0.00065     0.04099
             92  H  2 XY      0.00002     0.00004
             93  H  2 XZ      0.00002     0.00004
             94  H  2 YZ      0.00002     0.00004
             95  H  2 XXX    -0.00010     0.00088
             96  H  2 YYY    -0.00010     0.00088
             97  H  2 ZZZ    -0.00010     0.00088
             98  H  2 XXY     0.00001     0.00067
             99  H  2 XXZ     0.00001     0.00067
            100  H  2 YYX     0.00001     0.00067
            101  H  2 YYZ     0.00001     0.00067
            102  H  2 ZZX     0.00001     0.00067
            103  H  2 ZZY     0.00001     0.00067
            104  H  2 XYZ     0.00001     0.00008
            105  H  3  S      1.49500     0.22840
            106  H  3  S     -0.14789     0.11089
            107  H  3  S     -0.20303     0.17695
            108  H  3  S     -0.05729     0.17163
            109  H  3  X      0.00388     0.00876
            110  H  3  Y      0.00388     0.00876
            111  H  3  Z      0.00388     0.00876
            112  H  3  X      0.00206     0.00136
            113  H  3  Y      0.00206     0.00136
            114  H  3  Z      0.00206     0.00136
            115  H  3  X      0.00012     0.00015
            116  H  3  Y      0.00012     0.00015
            117  H  3  Z      0.00012     0.00015
            118  H  3 XX      0.00361     0.05441
            119  H  3 YY      0.00361     0.05441
            120  H  3 ZZ      0.00361     0.05441
            121  H  3 XY      0.00020     0.00120
            122  H  3 XZ      0.00020     0.00120
            123  H  3 YZ      0.00020     0.00120
            124  H  3 XX      0.00065     0.04099
            125  H  3 YY      0.00065     0.04099
            126  H  3 ZZ      0.00065     0.04099
            127  H  3 XY      0.00002     0.00004
            128  H  3 XZ      0.00002     0.00004
            129  H  3 YZ      0.00002     0.00004
            130  H  3 XXX    -0.00010     0.00088
            131  H  3 YYY    -0.00010     0.00088
            132  H  3 ZZZ    -0.00010     0.00088
            133  H  3 XXY     0.00001     0.00067
            134  H  3 XXZ     0.00001     0.00067
            135  H  3 YYX     0.00001     0.00067
            136  H  3 YYZ     0.00001     0.00067
            137  H  3 ZZX     0.00001     0.00067
            138  H  3 ZZY     0.00001     0.00067
            139  H  3 XYZ     0.00001     0.00008
            140  H  4  S      1.49500     0.22840
            141  H  4  S     -0.14789     0.11089
            142  H  4  S     -0.20303     0.17695
            143  H  4  S     -0.05729     0.17163
            144  H  4  X      0.00388     0.00876
            145  H  4  Y      0.00388     0.00876
            146  H  4  Z      0.00388     0.00876
            147  H  4  X      0.00206     0.00136
            148  H  4  Y      0.00206     0.00136
            149  H  4  Z      0.00206     0.00136
            150  H  4  X      0.00012     0.00015
            151  H  4  Y      0.00012     0.00015
            152  H  4  Z      0.00012     0.00015
            153  H  4 XX      0.00361     0.05441
            154  H  4 YY      0.00361     0.05441
            155  H  4 ZZ      0.00361     0.05441
            156  H  4 XY      0.00020     0.00120
            157  H  4 XZ      0.00020     0.00120
            158  H  4 YZ      0.00020     0.00120
            159  H  4 XX      0.00065     0.04099
            160  H  4 YY      0.00065     0.04099
            161  H  4 ZZ      0.00065     0.04099
            162  H  4 XY      0.00002     0.00004
            163  H  4 XZ      0.00002     0.00004
            164  H  4 YZ      0.00002     0.00004
            165  H  4 XXX    -0.00010     0.00088
            166  H  4 YYY    -0.00010     0.00088
            167  H  4 ZZZ    -0.00010     0.00088
            168  H  4 XXY     0.00001     0.00067
            169  H  4 XXZ     0.00001     0.00067
            170  H  4 YYX     0.00001     0.00067
            171  H  4 YYZ     0.00001     0.00067
            172  H  4 ZZX     0.00001     0.00067
            173  H  4 ZZY     0.00001     0.00067
            174  H  4 XYZ     0.00001     0.00008
            175  H  5  S      1.49500     0.22840
            176  H  5  S     -0.14789     0.11089
            177  H  5  S     -0.20303     0.17695
            178  H  5  S     -0.05729     0.17163
            179  H  5  X      0.00388     0.00876
            180  H  5  Y      0.00388     0.00876
            181  H  5  Z      0.00388     0.00876
            182  H  5  X      0.00206     0.00136
            183  H  5  Y      0.00206     0.00136
            184  H  5  Z      0.00206     0.00136
            185  H  5  X      0.00012     0.00015
            186  H  5  Y      0.00012     0.00015
            187  H  5  Z      0.00012     0.00015
            188  H  5 XX      0.00361     0.05441
            189  H  5 YY      0.00361     0.05441
            190  H  5 ZZ      0.00361     0.05441
            191  H  5 XY      0.00020     0.00120
            192  H  5 XZ      0.00020     0.00120
            193  H  5 YZ      0.00020     0.00120
            194  H  5 XX      0.00065     0.04099
            195  H  5 YY      0.00065     0.04099
            196  H  5 ZZ      0.00065     0.04099
            197  H  5 XY      0.00002     0.00004
            198  H  5 XZ      0.00002     0.00004
            199  H  5 YZ      0.00002     0.00004
            200  H  5 XXX    -0.00010     0.00088
            201  H  5 YYY    -0.00010     0.00088
            202  H  5 ZZZ    -0.00010     0.00088
            203  H  5 XXY     0.00001     0.00067
            204  H  5 XXZ     0.00001     0.00067
            205  H  5 YYX     0.00001     0.00067
            206  H  5 YYZ     0.00001     0.00067
            207  H  5 ZZX     0.00001     0.00067
            208  H  5 ZZY     0.00001     0.00067
            209  H  5 XYZ     0.00001     0.00008

          ----- MULLIKEN ATOMIC OVERLAP POPULATIONS -----
          (OFF-DIAGONAL ELEMENTS NEED TO BE MULTIPLIED BY 2)

             1           2           3           4           5

    1    1.8468088
    2    0.4201315   0.7593230
    3    0.4201315  -0.0204294   0.7593230
    4    0.4201315  -0.0204294  -0.0204294   0.7593230
    5    0.4201315  -0.0204294  -0.0204294  -0.0204294   0.7593230

          TOTAL MULLIKEN AND LOWDIN ATOMIC POPULATIONS
       ATOM         MULL.POP.    CHARGE          LOW.POP.     CHARGE
    1 SI            3.527335    0.472665         3.938487    0.061513
    2 H             1.118166   -0.118166         1.015378   -0.015378
    3 H             1.118166   -0.118166         1.015378   -0.015378
    4 H             1.118166   -0.118166         1.015378   -0.015378
    5 H             1.118166   -0.118166         1.015378   -0.015378

          -------------------------------
          BOND ORDER AND VALENCE ANALYSIS     BOND ORDER THRESHOLD=0.050
          -------------------------------

                   BOND                       BOND                       BOND
  ATOM PAIR DIST  ORDER      ATOM PAIR DIST  ORDER      ATOM PAIR DIST  ORDER
    1   2  1.480  0.954        1   3  1.480  0.954        1   4  1.480  0.954
    1   5  1.480  0.954

                       TOTAL       BONDED        FREE
      ATOM            VALENCE     VALENCE     VALENCE
    1 SI                3.815       3.815       0.000
    2 H                 0.961       0.961       0.000
    3 H                 0.961       0.961      -0.000
    4 H                 0.961       0.961      -0.000
    5 H                 0.961       0.961       0.000

          ---------------------
          ELECTROSTATIC MOMENTS
          ---------------------

 POINT   1           X           Y           Z (BOHR)    CHARGE
                 0.000000    0.000000    0.000000        0.00 (A.U.)
         DX          DY          DZ         /D/  (DEBYE)
     0.000000    0.000000    0.000000    0.000000
 ...... END OF PROPERTY EVALUATION ......
 STEP CPU TIME =     0.06 TOTAL CPU TIME =       25.3 (    0.4 MIN)
 TOTAL WALL CLOCK TIME=       31.4 SECONDS, CPU UTILIZATION IS  80.38%
               824473  WORDS OF DYNAMIC MEMORY USED
 EXECUTION OF GAMESS TERMINATED NORMALLY Fri May 29 15:23:34 2020
 DDI: 263640 bytes (0.3 MB / 0 MWords) used by master data server.

 ----------------------------------------
 CPU timing information for all processes
 ========================================
 0: 20.908 + 4.384 = 25.292
 ----------------------------------------
 ddikick.x: exited gracefully.
----- accounting info -----
Files used on the master node gwang18-p3 were:
-rw-rw-r-- 1 gwang18 gwang18     714204 5月  29 15:23 /home/gwang18/research/projects/si_gap/sih4/cis/qz/cis/30orb/hf.dat
-rw-rw-r-- 1 gwang18 gwang18       4714 5月  29 15:23 /home/gwang18/research/projects/si_gap/sih4/cis/qz/cis/30orb/hf.F05
-rw-rw-r-- 1 gwang18 gwang18 2505462688 5月  29 15:23 /home/gwang18/research/projects/si_gap/sih4/cis/qz/cis/30orb/hf.F08
-rw-rw-r-- 1 gwang18 gwang18   10012320 5月  29 15:23 /home/gwang18/research/projects/si_gap/sih4/cis/qz/cis/30orb/hf.F10
-rw-rw-r-- 1 gwang18 gwang18       4714 5月  29 15:21 /home/gwang18/research/projects/si_gap/sih4/cis/qz/cis/30orb/hf.inp
-rw-rw-r-- 1 gwang18 gwang18     674168 5月  29 15:23 /home/gwang18/research/projects/si_gap/sih4/cis/qz/cis/30orb/hf.out
2020年 05月 29日 星期五 15:23:38 EDT
0.0u 0.2s 0:34.98 0.8% 0+0k 592+24io 2pf+0w
