----- GAMESS execution script 'rungms' -----
This job is running on host cori04
under operating system Linux at Sun May 10 10:34:13 PDT 2020
Available scratch disk space (Kbyte units) at beginning of the job is
Filesystem                                           1K-blocks           Used      Available Use% Mounted on
10.100.104.4@o2ib4:10.100.104.5@o2ib4:/snx11168 29531080226208 18333095694796 10900069116788  63% /global/cscratch1
GAMESS temporary binary files will be written to /global/cscratch1/sd/aannabe
GAMESS supplementary output files will be written to /global/homes/a/aannabe/docs/Si_bulk/SiH2/gamess/QZ
Copying input file scf.inp to your run's scratch directory...

 Distributed Data Interface kickoff program.
 Initiating 1 compute processes on 1 nodes to run the following command:
 /global/homes/a/aannabe/codes/gamess/gamess.00.x scf 

          ******************************************************
          *         GAMESS VERSION =  1 MAY 2013 (R1)          *
          *             FROM IOWA STATE UNIVERSITY             *
          * M.W.SCHMIDT, K.K.BALDRIDGE, J.A.BOATZ, S.T.ELBERT, *
          *   M.S.GORDON, J.H.JENSEN, S.KOSEKI, N.MATSUNAGA,   *
          *          K.A.NGUYEN, S.J.SU, T.L.WINDUS,           *
          *       TOGETHER WITH M.DUPUIS, J.A.MONTGOMERY       *
          *         J.COMPUT.CHEM.  14, 1347-1363(1993)        *
          **************** 64 BIT INTEL VERSION ****************

  SINCE 1993, STUDENTS AND POSTDOCS WORKING AT IOWA STATE UNIVERSITY
  AND ALSO IN THEIR VARIOUS JOBS AFTER LEAVING ISU HAVE MADE IMPORTANT
  CONTRIBUTIONS TO THE CODE:
     IVANA ADAMOVIC, CHRISTINE AIKENS, YURI ALEXEEV, POOJA ARORA,
     ANDREY ASADCHEV, ROB BELL, PRADIPTA BANDYOPADHYAY, JONATHAN BENTZ,
     BRETT BODE, GALINA CHABAN, WEI CHEN, CHEOL HO CHOI, PAUL DAY,
     ALBERT DEFUSCO, TIM DUDLEY, DMITRI FEDOROV, GRAHAM FLETCHER,
     MARK FREITAG, KURT GLAESEMANN, DAN KEMP, GRANT MERRILL,
     NORIYUKI MINEZAWA, JONATHAN MULLIN, TAKESHI NAGATA,
     SEAN NEDD, HEATHER NETZLOFF, BOSILJKA NJEGIC, RYAN OLSON, MIKE PAK,
     JIM SHOEMAKER, LYUDMILA SLIPCHENKO, SAROM SOK, JIE SONG,
     TETSUYA TAKETSUGU, SIMON WEBB, SOOHAENG YOO, FEDERICO ZAHARIEV

  ADDITIONAL CODE HAS BEEN PROVIDED BY COLLABORATORS IN OTHER GROUPS:
     IOWA STATE UNIVERSITY:
          JOE IVANIC, LAIMUTIS BYTAUTAS, KLAUS RUEDENBERG
     UNIVERSITY OF TOKYO: KIMIHIKO HIRAO, TAKAHITO NAKAJIMA,
          TAKAO TSUNEDA, MUNEAKI KAMIYA, SUSUMU YANAGISAWA,
          KIYOSHI YAGI, MAHITO CHIBA, SEIKEN TOKURA, NAOAKI KAWAKAMI
     UNIVERSITY OF AARHUS: FRANK JENSEN
     UNIVERSITY OF IOWA: VISVALDAS KAIRYS, HUI LI
     NATIONAL INST. OF STANDARDS AND TECHNOLOGY: WALT STEVENS, DAVID GARMER
     UNIVERSITY OF PISA: BENEDETTA MENNUCCI, JACOPO TOMASI
     UNIVERSITY OF MEMPHIS: HENRY KURTZ, PRAKASHAN KORAMBATH
     UNIVERSITY OF ALBERTA: TOBY ZENG, MARIUSZ KLOBUKOWSKI
     UNIVERSITY OF NEW ENGLAND: MARK SPACKMAN
     MIE UNIVERSITY: HIROAKI UMEDA
     MICHIGAN STATE UNIVERSITY:
          KAROL KOWALSKI, MARTA WLOCH, JEFFREY GOUR, JESSE LUTZ,
          WEI LI, PIOTR PIECUCH
     UNIVERSITY OF SILESIA: MONIKA MUSIAL, STANISLAW KUCHARSKI
     FACULTES UNIVERSITAIRES NOTRE-DAME DE LA PAIX:
          OLIVIER QUINET, BENOIT CHAMPAGNE
     UNIVERSITY OF CALIFORNIA - SANTA BARBARA: BERNARD KIRTMAN
     INSTITUTE FOR MOLECULAR SCIENCE:
          KAZUYA ISHIMURA, MICHIO KATOUDA, AND SHIGERU NAGASE
     UNIVERSITY OF NOTRE DAME: DAN CHIPMAN
     KYUSHU UNIVERSITY:
          HARUYUKI NAKANO,
          FENG LONG GU, JACEK KORCHOWIEC, MARCIN MAKOWSKI, AND YURIKO AOKI,
          HIROTOSHI MORI AND EISAKU MIYOSHI
     PENNSYLVANIA STATE UNIVERSITY:
          TZVETELIN IORDANOV, CHET SWALINA, JONATHAN SKONE,
          SHARON HAMMES-SCHIFFER
     WASEDA UNIVERSITY:
          MASATO KOBAYASHI, TOMOKO AKAMA, TSUGUKI TOUMA,
          TAKESHI YOSHIKAWA, YASUHIRO IKABATA, HIROMI NAKAI
     NANJING UNIVERSITY: SHUHUA LI
     UNIVERSITY OF NEBRASKA:
          PEIFENG SU, DEJUN SI, NANDUN THELLAMUREGE, YALI WANG, HUI LI
     UNIVERSITY OF ZURICH:
          ROBERTO PEVERATI, KIM BALDRIDGE
     N. COPERNICUS UNIVERSITY AND JACKSON STATE UNIVERSITY:
          MARIA BARYSZ

 EXECUTION OF GAMESS BEGUN Sun May 10 10:34:15 2020

            ECHO OF THE FIRST FEW INPUT CARDS -
 INPUT CARD> $CONTRL                                                                        
 INPUT CARD>     SCFTYP=ROHF                                                                
 INPUT CARD>     MULT=1                                                                     
 INPUT CARD>     ICHARG=0                                                                   
 INPUT CARD>     RUNTYP=ENERGY                                                              
 INPUT CARD>     MAXIT=150                                                                  
 INPUT CARD>     ECP=READ                                                                   
 INPUT CARD>     ISPHER=1                                                                   
 INPUT CARD>     UNITS=ANGS                                                                 
 INPUT CARD> $END                                                                           
 INPUT CARD>                                                                                
 INPUT CARD> $SYSTEM                                                                        
 INPUT CARD>     KDIAG=3                                                                    
 INPUT CARD>     MWORDS=125                                                                 
 INPUT CARD> $END                                                                           
 INPUT CARD>                                                                                
 INPUT CARD> !$SCF                                                                          
 INPUT CARD> !    DIRSCF=.t.                                                                
 INPUT CARD> !    DIIS=.t.                                                                  
 INPUT CARD> !    DAMP=.t.                                                                  
 INPUT CARD> !    SHIFT=.t.                                                                 
 INPUT CARD> !    RSTRCT=.t.                                                                
 INPUT CARD> !$END                                                                          
 INPUT CARD>                                                                                
 INPUT CARD> $GUESS                                                                         
 INPUT CARD>    GUESS=HUCKEL                                                                
 INPUT CARD>!    GUESS=MOREAD                                                               
 INPUT CARD>!    NORB=71                                                                    
 INPUT CARD>!    NORDER=1                                                                   
 INPUT CARD>!    IORDER(5)=7,5,6,8,9,10                                                     
 INPUT CARD> $END                                                                           
 INPUT CARD>                                                                                
 INPUT CARD>                                                                                
 INPUT CARD> $DATA                                                                          
 INPUT CARD>                                                                                
 INPUT CARD>C1                                                                              
 INPUT CARD>Si 14         0.0000        0.0000        0.0000                                
 INPUT CARD>S  10                                                                           
 INPUT CARD>  1  9.998274  0.002894                                                         
 INPUT CARD>  2  5.517644 -0.014523                                                         
 INPUT CARD>  3  3.044965  0.077634                                                         
 INPUT CARD>  4  1.680393 -0.224022                                                         
 INPUT CARD>  5  0.927341 -0.149080                                                         
 INPUT CARD>  6  0.511762  0.085944                                                         
 INPUT CARD>  7  0.282421  0.355394                                                         
 INPUT CARD>  8  0.155857  0.445219                                                         
 INPUT CARD>  9  0.086011  0.267230                                                         
 INPUT CARD> 10  0.047466  0.060787                                                         
 INPUT CARD>S   1                                                                           
 INPUT CARD>  1  0.488504  1.000000                                                         
  125000000 WORDS OF MEMORY AVAILABLE


     RUN TITLE
     ---------
                                                                                 

 THE POINT GROUP OF THE MOLECULE IS C1      
 THE ORDER OF THE PRINCIPAL AXIS IS     0
 *** WARNING! ATOM   1 SHELL    6 TYPE P HAS NORMALIZATION   0.99999860

 ATOM      ATOMIC                      COORDINATES (BOHR)
           CHARGE         X                   Y                   Z
 SI         14.0     0.0000000000        0.0000000000        0.0000000000
 H           1.0     0.0000000000        0.0000000000        2.8610829399
 H           1.0    -2.8593689585        0.0000000000       -0.0990027445

          INTERNUCLEAR DISTANCES (ANGS.)
          ------------------------------

                1 SI         2 H          3 H     

   1 SI      0.0000000    1.5140200 *  1.5140197 *
   2 H       1.5140200 *  0.0000000    2.1778777 *
   3 H       1.5140197 *  2.1778777 *  0.0000000  

  * ... LESS THAN  3.000


     ATOMIC BASIS SET
     ----------------
 THE CONTRACTED PRIMITIVE FUNCTIONS HAVE BEEN UNNORMALIZED
 THE CONTRACTED BASIS FUNCTIONS ARE NOW NORMALIZED TO UNITY

  SHELL TYPE  PRIMITIVE        EXPONENT          CONTRACTION COEFFICIENT(S)

 SI        

      1   S       1             9.9982740    0.002893997896
      1   S       2             5.5176440   -0.014522989441
      1   S       3             3.0449650    0.077633943557
      1   S       4             1.6803930   -0.224021837126
      1   S       5             0.9273410   -0.149079891612
      1   S       6             0.5117620    0.085943937515
      1   S       7             0.2824210    0.355393741613
      1   S       8             0.1558570    0.445218676307
      1   S       9             0.0860110    0.267229805712
      1   S      10             0.0474660    0.060786955805

      2   S      11             0.4885040    1.000000000000

      3   S      12             0.1994570    1.000000000000

      4   S      13             0.0814390    1.000000000000

      5   S      14             0.0349830    1.000000000000

      6   P      15             5.0278680   -0.003241995466
      6   P      16             2.8677510    0.010648985106
      6   P      17             1.6356830   -0.049760930401
      6   P      18             0.9329470   -0.000016999976
      6   P      19             0.5321260    0.106059851657
      6   P      20             0.3035090    0.236201669632
      6   P      21             0.1731130    0.310664565483
      6   P      22             0.0987390    0.294695587818
      6   P      23             0.0563180    0.153897784748
      6   P      24             0.0321220    0.042336940785

      7   P      25             1.2257900    1.000000000000

      8   P      26             0.5013640    1.000000000000

      9   P      27             0.2050640    1.000000000000

     10   P      28             0.0254720    1.000000000000

     11   D      29             0.9970030    1.000000000000

     12   D      30             0.3659420    1.000000000000

     13   D      31             0.1343160    1.000000000000

     14   D      32             0.0464970    1.000000000000

     15   F      33             0.5491160    1.000000000000

     16   F      34             0.2149980    1.000000000000

     17   F      35             0.0868520    1.000000000000

     18   G      36             0.4595470    1.000000000000

     19   G      37             0.2073800    1.000000000000

 H         

     20   S      38            23.8431850    0.004114899701
     20   S      39            10.2124430    0.010464399240
     20   S      40             4.3741640    0.028011097966
     20   S      41             1.8735290    0.075886194491
     20   S      42             0.8024650    0.182106186780
     20   S      43             0.3437090    0.348521374698
     20   S      44             0.1472170    0.378231272542
     20   S      45             0.0630550    0.116424091548

     21   S      46             0.0287260    1.000000000000

     22   S      47             0.0818560    1.000000000000

     23   S      48             0.2332540    1.000000000000

     24   S      49             0.6646730    1.000000000000

     25   P      50             0.0955220    1.000000000000

     26   P      51             0.2844690    1.000000000000

     27   P      52             0.8471590    1.000000000000

     28   P      53             2.5228680    1.000000000000

     29   D      54             0.2160330    1.000000000000

     30   D      55             0.6652790    1.000000000000

     31   D      56             2.0487390    1.000000000000

     32   F      57             0.4446470    1.000000000000

     33   F      58             1.4214600    1.000000000000

 H         

     34   S      59            23.8431850    0.004114899701
     34   S      60            10.2124430    0.010464399240
     34   S      61             4.3741640    0.028011097966
     34   S      62             1.8735290    0.075886194491
     34   S      63             0.8024650    0.182106186780
     34   S      64             0.3437090    0.348521374698
     34   S      65             0.1472170    0.378231272542
     34   S      66             0.0630550    0.116424091548

     35   S      67             0.0287260    1.000000000000

     36   S      68             0.0818560    1.000000000000

     37   S      69             0.2332540    1.000000000000

     38   S      70             0.6646730    1.000000000000

     39   P      71             0.0955220    1.000000000000

     40   P      72             0.2844690    1.000000000000

     41   P      73             0.8471590    1.000000000000

     42   P      74             2.5228680    1.000000000000

     43   D      75             0.2160330    1.000000000000

     44   D      76             0.6652790    1.000000000000

     45   D      77             2.0487390    1.000000000000

     46   F      78             0.4446470    1.000000000000

     47   F      79             1.4214600    1.000000000000

 TOTAL NUMBER OF BASIS SET SHELLS             =   47
 NUMBER OF CARTESIAN GAUSSIAN BASIS FUNCTIONS =  214
 NOTE: THIS RUN WILL RESTRICT THE MO VARIATION SPACE TO SPHERICAL HARMONICS.
 THE NUMBER OF ORBITALS KEPT IN THE VARIATIONAL SPACE WILL BE PRINTED LATER.
 NUMBER OF ELECTRONS                          =   16
 CHARGE OF MOLECULE                           =    0
 SPIN MULTIPLICITY                            =    1
 NUMBER OF OCCUPIED ORBITALS (ALPHA)          =    8
 NUMBER OF OCCUPIED ORBITALS (BETA )          =    8
 TOTAL NUMBER OF ATOMS                        =    3
 THE NUCLEAR REPULSION ENERGY IS       10.0294834909
 NOTE THIS RUN IS USING CORE POTENTIALS, AND THE NUMBER OF ELECTRONS,
 OCCUPIED ORBITALS, AND NUCLEAR REPULSION ENERGY WILL BE ADJUSTED BELOW
 AFTER REMOVAL OF THE CORE CHARGES.

     $CONTRL OPTIONS
     ---------------
 SCFTYP=ROHF         RUNTYP=ENERGY       EXETYP=RUN     
 MPLEVL=       0     CITYP =NONE         CCTYP =NONE         VBTYP =NONE    
 DFTTYP=NONE         TDDFT =NONE    
 MULT  =       1     ICHARG=       0     NZVAR =       0     COORD =UNIQUE  
 PP    =READ         RELWFN=NONE         LOCAL =NONE         NUMGRD=       F
 ISPHER=       1     NOSYM =       0     MAXIT =     150     UNITS =ANGS    
 PLTORB=       F     MOLPLT=       F     AIMPAC=       F     FRIEND=        
 NPRINT=       7     IREST =       0     GEOM  =INPUT   
 NORMF =       0     NORMP =       0     ITOL  =      20     ICUT  =       9
 INTTYP=BEST         GRDTYP=BEST         QMTTOL= 1.0E-06

     $SYSTEM OPTIONS
     ---------------
  REPLICATED MEMORY=   125000000 WORDS (ON EVERY NODE).
 DISTRIBUTED MEMDDI=           0 MILLION WORDS IN AGGREGATE,
 MEMDDI DISTRIBUTED OVER   1 PROCESSORS IS           0 WORDS/PROCESSOR.
 TOTAL MEMORY REQUESTED ON EACH PROCESSOR=   125000000 WORDS.
 TIMLIM=      525600.00 MINUTES, OR     365.0 DAYS.
 PARALL= F  BALTYP=  DLB     KDIAG=    3  COREFL= F
 MXSEQ2=     300 MXSEQ3=     150

          --------------
          ECP POTENTIALS
          --------------

 PARAMETERS FOR "SI-CCECP" ON ATOM    1 WITH ZCORE  10 AND LMAX  2 ARE
 FOR L= 2      COEFF    N           ZETA
    1        4.00000    1        5.16832
    2       20.67326    3        8.86169
    3      -14.81817    2        3.93347
 FOR L= 0      COEFF    N           ZETA
    1       14.83276    2        9.44702
    2       26.34966    2        2.55381
 FOR L= 1      COEFF    N           ZETA
    1        7.62140    2        3.66000
    2       10.33158    2        1.90365

 PARAMETERS FOR "H-CCECP " ON ATOM    2 WITH ZCORE   0 AND LMAX  1 ARE
 FOR L= 1      COEFF    N           ZETA
    1        1.00000    1       21.24360
    2       21.24360    3       21.24360
    3      -10.85192    2       21.77697
 FOR L= 0      COEFF    N           ZETA
    1        0.00000    2        1.00000

 PARAMETERS FOR "H-CCECP " ON ATOM    3 ARE THE SAME AS ATOM   2

 THE ECP RUN REMOVES   10 CORE ELECTRONS, AND THE SAME NUMBER OF PROTONS.
 NUMBER OF ELECTRONS KEPT IN THE CALCULATION IS =    6
 NUMBER OF OCCUPIED ORBITALS (ALPHA) KEPT IS    =    3
 NUMBER OF OCCUPIED ORBITALS (BETA ) KEPT IS    =    3
 THE ADJUSTED NUCLEAR REPULSION ENERGY=        3.0391227157
          ECP ANGULAR INTS.........     0.02 SECONDS

          ----------------
          PROPERTIES INPUT
          ----------------

     MOMENTS            FIELD           POTENTIAL          DENSITY
 IEMOM =       1   IEFLD =       0   IEPOT =       0   IEDEN =       0
 WHERE =COMASS     WHERE =NUCLEI     WHERE =NUCLEI     WHERE =NUCLEI  
 OUTPUT=BOTH       OUTPUT=BOTH       OUTPUT=BOTH       OUTPUT=BOTH    
 IEMINT=       0   IEFINT=       0                     IEDINT=       0
                                                       MORB  =       0
          EXTRAPOLATION IN EFFECT
          SOSCF IN EFFECT
 ORBITAL PRINTING OPTION: NPREO=     1   214     2     1

     -------------------------------
     INTEGRAL TRANSFORMATION OPTIONS
     -------------------------------
     NWORD  =            0
     CUTOFF = 1.0E-09     MPTRAN =       0
     DIRTRF =       F     AOINTS =DUP     

          ----------------------
          INTEGRAL INPUT OPTIONS
          ----------------------
 NOPK  =       1 NORDER=       0 SCHWRZ=       F

     ------------------------------------------
     THE POINT GROUP IS C1 , NAXIS= 0, ORDER= 1
     ------------------------------------------

 -- VARIATIONAL SPACE WILL BE RESTRICTED TO PURE SPHERICAL HARMONICS ONLY --
 AFTER EXCLUDING CONTAMINANT COMBINATIONS FROM THE CARTESIAN GAUSSIAN BASIS
 SET, THE NUMBER OF SPHERICAL HARMONICS KEPT IN THE VARIATION SPACE IS  171

     DIMENSIONS OF THE SYMMETRY SUBSPACES ARE
 A   =  171

 ..... DONE SETTING UP THE RUN .....
 STEP CPU TIME =     0.06 TOTAL CPU TIME =        0.1 (    0.0 MIN)
 TOTAL WALL CLOCK TIME=        0.2 SECONDS, CPU UTILIZATION IS  26.09%

          ********************
          1 ELECTRON INTEGRALS
          ********************
 TIME TO DO ORDINARY INTEGRALS=      0.00
 TIME TO DO      ECP INTEGRALS=      0.08
 ...... END OF ONE-ELECTRON INTEGRALS ......
 STEP CPU TIME =     0.08 TOTAL CPU TIME =        0.1 (    0.0 MIN)
 TOTAL WALL CLOCK TIME=        0.3 SECONDS, CPU UTILIZATION IS  43.75%

          -------------
          GUESS OPTIONS
          -------------
          GUESS =HUCKEL            NORB  =       0          NORDER=       0
          MIX   =       F          PRTMO =       F          PUNMO =       F
          TOLZ  = 1.0E-08          TOLE  = 1.0E-05
          SYMDEN=       F          PURIFY=       F

 INITIAL GUESS ORBITALS GENERATED BY HUCKEL   ROUTINE.
 HUCKEL GUESS REQUIRES    326880 WORDS.

 STATISTICS FOR GENERATION OF SYMMETRY ORBITAL -Q- MATRIX
 NUMBER OF CARTESIAN ATOMIC ORBITALS=        214
 NUMBER OF SPHERICAL CONTAMINANTS DROPPED=    43
 NUMBER OF LINEARLY DEPENDENT MOS DROPPED=     0
 TOTAL NUMBER OF MOS IN VARIATION SPACE=     171

 SYMMETRIES FOR INITIAL GUESS ORBITALS FOLLOW.  ALPHA SET(S).
     3 ORBITALS ARE OCCUPIED (    0 CORE ORBITALS).
     1=A        2=A        3=A        4=A        5=A        6=A        7=A   
     8=A        9=A       10=A       11=A       12=A       13=A   

 SYMMETRIES FOR INITIAL GUESS ORBITALS FOLLOW.   BETA SET(S).
     3 ORBITALS ARE OCCUPIED (    0 CORE ORBITALS).
     1=A        2=A        3=A        4=A        5=A        6=A        7=A   
     8=A        9=A       10=A       11=A       12=A       13=A   
 ...... END OF INITIAL ORBITAL SELECTION ......
 STEP CPU TIME =     0.26 TOTAL CPU TIME =        0.4 (    0.0 MIN)
 TOTAL WALL CLOCK TIME=        0.6 SECONDS, CPU UTILIZATION IS  67.80%

                    ----------------------
                    AO INTEGRAL TECHNOLOGY
                    ----------------------
     S,P,L SHELL ROTATED AXIS INTEGRALS, REPROGRAMMED BY
        KAZUYA ISHIMURA (IMS) AND JOSE SIERRA (SYNSTAR).
     S,P,D,L SHELL ROTATED AXIS INTEGRALS PROGRAMMED BY
        KAZUYA ISHIMURA (INSTITUTE FOR MOLECULAR SCIENCE).
     S,P,D,F,G SHELL TO TOTAL QUARTET ANGULAR MOMENTUM SUM 5,
        ERIC PROGRAM BY GRAHAM FLETCHER (ELORET AND NASA ADVANCED
        SUPERCOMPUTING DIVISION, AMES RESEARCH CENTER).
     S,P,D,F,G,L SHELL GENERAL RYS QUADRATURE PROGRAMMED BY
        MICHEL DUPUIS (PACIFIC NORTHWEST NATIONAL LABORATORY).

          --------------------
          2 ELECTRON INTEGRALS
          --------------------

 THE -PK- OPTION IS OFF, THE INTEGRALS ARE NOT IN SUPERMATRIX FORM.
 STORING   15000 INTEGRALS/RECORD ON DISK, USING 12 BYTES/INTEGRAL.
 TWO ELECTRON INTEGRAL EVALUATION REQUIRES  140853 WORDS OF MEMORY.
 II,JST,KST,LST =  1  1  1  1 NREC =         1 INTLOC =    1
 II,JST,KST,LST =  2  1  1  1 NREC =         1 INTLOC =    2
 II,JST,KST,LST =  3  1  1  1 NREC =         1 INTLOC =    7
 II,JST,KST,LST =  4  1  1  1 NREC =         1 INTLOC =   22
 II,JST,KST,LST =  5  1  1  1 NREC =         1 INTLOC =   56
 II,JST,KST,LST =  6  1  1  1 NREC =         1 INTLOC =  121
 II,JST,KST,LST =  7  1  1  1 NREC =         1 INTLOC =  220
 II,JST,KST,LST =  8  1  1  1 NREC =         1 INTLOC =  496
 II,JST,KST,LST =  9  1  1  1 NREC =         1 INTLOC = 1057
 II,JST,KST,LST = 10  1  1  1 NREC =         1 INTLOC = 2074
 II,JST,KST,LST = 11  1  1  1 NREC =         1 INTLOC = 3781
 II,JST,KST,LST = 12  1  1  1 NREC =         1 INTLOC = 9301
 II,JST,KST,LST = 13  1  1  1 NREC =         2 INTLOC = 5254
 II,JST,KST,LST = 14  1  1  1 NREC =         3 INTLOC = 9160
 II,JST,KST,LST = 15  1  1  1 NREC =         5 INTLOC = 9547
 II,JST,KST,LST = 16  1  1  1 NREC =        10 INTLOC =13688
 II,JST,KST,LST = 17  1  1  1 NREC =        20 INTLOC =  974
 II,JST,KST,LST = 18  1  1  1 NREC =        34 INTLOC = 9469
 II,JST,KST,LST = 19  1  1  1 NREC =        70 INTLOC = 1606
 II,JST,KST,LST = 20  1  1  1 NREC =       128 INTLOC =10936
 II,JST,KST,LST = 21  1  1  1 NREC =       138 INTLOC =13912
 II,JST,KST,LST = 22  1  1  1 NREC =       149 INTLOC = 6871
 II,JST,KST,LST = 23  1  1  1 NREC =       160 INTLOC = 4948
 II,JST,KST,LST = 24  1  1  1 NREC =       171 INTLOC = 8281
 II,JST,KST,LST = 25  1  1  1 NREC =       183 INTLOC = 2011
 II,JST,KST,LST = 26  1  1  1 NREC =       218 INTLOC = 2337
 II,JST,KST,LST = 27  1  1  1 NREC =       256 INTLOC = 1382
 II,JST,KST,LST = 28  1  1  1 NREC =       297 INTLOC = 1399
 II,JST,KST,LST = 29  1  1  1 NREC =       341 INTLOC = 4704
 II,JST,KST,LST = 30  1  1  1 NREC =       440 INTLOC = 1151
 II,JST,KST,LST = 31  1  1  1 NREC =       553 INTLOC = 9090
 II,JST,KST,LST = 32  1  1  1 NREC =       683 INTLOC = 3299
 II,JST,KST,LST = 33  1  1  1 NREC =       935 INTLOC =10623
 II,JST,KST,LST = 34  1  1  1 NREC =      1242 INTLOC =  504
 II,JST,KST,LST = 35  1  1  1 NREC =      1312 INTLOC = 7209
 II,JST,KST,LST = 36  1  1  1 NREC =      1384 INTLOC = 5175
 II,JST,KST,LST = 37  1  1  1 NREC =      1457 INTLOC = 9720
 II,JST,KST,LST = 38  1  1  1 NREC =      1532 INTLOC = 6165
 II,JST,KST,LST = 39  1  1  1 NREC =      1608 INTLOC = 9834
 II,JST,KST,LST = 40  1  1  1 NREC =      1840 INTLOC = 4710
 II,JST,KST,LST = 41  1  1  1 NREC =      2084 INTLOC =11009
 II,JST,KST,LST = 42  1  1  1 NREC =      2342 INTLOC = 5331
 II,JST,KST,LST = 43  1  1  1 NREC =      2603 INTLOC =12527
 II,JST,KST,LST = 44  1  1  1 NREC =      3188 INTLOC = 8270
 II,JST,KST,LST = 45  1  1  1 NREC =      3833 INTLOC = 1328
 II,JST,KST,LST = 46  1  1  1 NREC =      4531 INTLOC =14955
 II,JST,KST,LST = 47  1  1  1 NREC =      5855 INTLOC =13317
 TOTAL NUMBER OF NONZERO TWO-ELECTRON INTEGRALS =           110663699
       7378 INTEGRAL RECORDS WERE STORED ON DISK FILE  8.
  ...... END OF TWO-ELECTRON INTEGRALS .....
 STEP CPU TIME =     9.97 TOTAL CPU TIME =       10.4 (    0.2 MIN)
 TOTAL WALL CLOCK TIME=       35.9 SECONDS, CPU UTILIZATION IS  28.89%

          ---------------------------
                 ROHF SCF CALCULATION
          ---------------------------

     NUCLEAR ENERGY =         3.0391227157
     MAXIT =150     NPUNCH=  2     MULT=  1
     EXTRAP=T  DAMP=F  SHIFT=F  RSTRCT=F  DIIS=F  SOSCF=T
     DENSITY MATRIX CONV=  1.00E-05
     ROHF CANONICALIZATION PARAMETERS
             C-C     O-O     V-V
     ALPHA -0.5000  0.5000  1.5000
     BETA   1.5000  0.5000 -0.5000
     SOSCF WILL OPTIMIZE     504 ORBITAL ROTATION ANGLES. SOGTOL= 2.500E-01
     MEMORY REQUIRED FOR UHF/ROHF ITERS=    448398 WORDS.

 ITER EX      TOTAL ENERGY        E CHANGE  DENSITY CHANGE    ORB. GRAD 
   1  0       -4.7611993165    -4.7611993165   0.786701725   0.000000000
          ---------------START SECOND ORDER SCF---------------
   2  1       -4.8497310406    -0.0885317241   0.082910933   0.010376107
   3  2       -4.8525635329    -0.0028324924   0.039387339   0.003686422
   4  3       -4.8529609762    -0.0003974433   0.003426655   0.000517308
   5  4       -4.8529699785    -0.0000090023   0.001277073   0.000168209
   6  5       -4.8529709123    -0.0000009339   0.000187476   0.000017404
   7  6       -4.8529709233    -0.0000000110   0.000062186   0.000004970
   8  7       -4.8529709244    -0.0000000011   0.000004779   0.000000747
   9  8       -4.8529709244    -0.0000000000   0.000001612   0.000000199

          -----------------
          DENSITY CONVERGED
          -----------------
     TIME TO FORM FOCK OPERATORS=      17.1 SECONDS (       1.9 SEC/ITER)
     TIME TO SOLVE SCF EQUATIONS=       0.2 SECONDS (       0.0 SEC/ITER)

 FINAL ROHF ENERGY IS       -4.8529709244 AFTER   9 ITERATIONS

          --------------------
          SPIN SZ   =    0.000
          S-SQUARED =   -0.000
          --------------------

          ------------
          EIGENVECTORS
          ------------

                      1          2          3          4          5
                   -0.6778    -0.4600    -0.3381    -0.0030     0.0360
                     A          A          A          A          A   
    1  SI 1  S    0.766134   0.000000   0.518121   0.000000   0.191522
    2  SI 1  S   -0.003458  -0.000000   0.000112   0.000000   0.030218
    3  SI 1  S   -0.047390   0.000000   0.033210   0.000000  -0.014553
    4  SI 1  S   -0.070800  -0.000000   0.069473   0.000000   0.830199
    5  SI 1  S    0.003608   0.000000   0.009067   0.000000   5.774605
    6  SI 1  X   -0.047760   0.209606   0.468833   0.000000  -1.628706
    7  SI 1  Y    0.000000   0.000000   0.000000   0.775339   0.000000
    8  SI 1  Z    0.046135   0.216989  -0.452881   0.000000   1.573289
    9  SI 1  X    0.007527  -0.016869  -0.005037   0.000000  -0.095247
   10  SI 1  Y    0.000000   0.000000   0.000000   0.007435   0.000000
   11  SI 1  Z   -0.007271  -0.017464   0.004866   0.000000   0.092006
   12  SI 1  X   -0.020684   0.056330   0.017395   0.000000   0.302907
   13  SI 1  Y    0.000000   0.000000   0.000000  -0.035518   0.000000
   14  SI 1  Z    0.019980   0.058315  -0.016803   0.000000  -0.292600
   15  SI 1  X   -0.021415   0.049755   0.004501   0.000000   0.879975
   16  SI 1  Y    0.000000   0.000000   0.000000  -0.075394   0.000000
   17  SI 1  Z    0.020686   0.051507  -0.004348   0.000000  -0.850034
   18  SI 1  X    0.000457   0.000298  -0.002862   0.000000  -1.218726
   19  SI 1  Y    0.000000   0.000000   0.000000   0.438102   0.000000
   20  SI 1  Z   -0.000441   0.000309   0.002765   0.000000   1.177259
   21  SI 1 XX    0.004671  -0.026783  -0.005838   0.000000   0.002551
   22  SI 1 YY   -0.009349   0.000000   0.011685   0.000000  -0.005139
   23  SI 1 ZZ    0.004678   0.026783  -0.005846   0.000000   0.002589
   24  SI 1 XY    0.000000   0.000000   0.000000  -0.000576   0.000000
   25  SI 1 XZ    0.000114  -0.001071  -0.000136   0.000000   0.000637
   26  SI 1 YZ    0.000000   0.000000   0.000000   0.000556   0.000000
   27  SI 1 XX    0.008638  -0.047968  -0.013714   0.000000  -0.016939
   28  SI 1 YY   -0.017460   0.000000   0.027482   0.000000   0.033978
   29  SI 1 ZZ    0.008822   0.047968  -0.013768   0.000000  -0.017038
   30  SI 1 XY    0.000000   0.000000   0.000000  -0.001429   0.000000
   31  SI 1 XZ    0.003070  -0.001918  -0.000903   0.000000  -0.001650
   32  SI 1 YZ    0.000000   0.000000   0.000000   0.001380   0.000000
   33  SI 1 XX    0.010250  -0.034673  -0.018565   0.000000   0.006783
   34  SI 1 YY   -0.020557   0.000000   0.037503   0.000000  -0.013173
   35  SI 1 ZZ    0.010307   0.034673  -0.018938   0.000000   0.006390
   36  SI 1 XY    0.000000   0.000000   0.000000   0.000322   0.000000
   37  SI 1 XZ    0.000951  -0.001386  -0.006221   0.000000  -0.006555
   38  SI 1 YZ    0.000000   0.000000   0.000000  -0.000311   0.000000
   39  SI 1 XX    0.001907  -0.014826  -0.005673   0.000000   0.219499
   40  SI 1 YY   -0.003775  -0.000000   0.011438   0.000000  -0.439624
   41  SI 1 ZZ    0.001868   0.014826  -0.005765   0.000000   0.220126
   42  SI 1 XY    0.000000   0.000000   0.000000  -0.009037   0.000000
   43  SI 1 XZ   -0.000665  -0.000593  -0.001539   0.000000   0.010448
   44  SI 1 YZ    0.000000   0.000000   0.000000   0.008729   0.000000
   45  SI 1 XXX  -0.005280   0.006559   0.003017   0.000000   0.003576
   46  SI 1 YYY   0.000000   0.000000   0.000000   0.001961   0.000000
   47  SI 1 ZZZ   0.005621   0.006156  -0.003316   0.000000  -0.003746
   48  SI 1 XXY   0.000000   0.000000   0.000000  -0.001335   0.000000
   49  SI 1 XXZ  -0.004683  -0.004880   0.004070   0.000000   0.002357
   50  SI 1 YYX   0.002959  -0.003264  -0.000393   0.000000  -0.002763
   51  SI 1 YYZ  -0.002858  -0.003379   0.000380   0.000000   0.002669
   52  SI 1 ZZX   0.004124  -0.005536  -0.003655   0.000000  -0.002035
   53  SI 1 ZZY   0.000000   0.000000   0.000000  -0.001296   0.000000
   54  SI 1 XYZ   0.000000   0.000000   0.000000   0.000651   0.000000
   55  SI 1 XXX  -0.007399  -0.000263   0.003768   0.000000   0.028693
   56  SI 1 YYY   0.000000   0.000000   0.000000   0.008528   0.000000
   57  SI 1 ZZZ   0.007896  -0.000353  -0.004330   0.000000  -0.030377
   58  SI 1 XXY   0.000000   0.000000   0.000000  -0.005761   0.000000
   59  SI 1 XXZ  -0.006816  -0.001126   0.007591   0.000000   0.023173
   60  SI 1 YYX   0.003910   0.001545   0.001845   0.000000  -0.018200
   61  SI 1 YYZ  -0.003777   0.001600  -0.001782   0.000000   0.017581
   62  SI 1 ZZX   0.006016  -0.001192  -0.006901   0.000000  -0.020295
   63  SI 1 ZZY   0.000000   0.000000   0.000000  -0.005681   0.000000
   64  SI 1 XYZ   0.000000   0.000000   0.000000   0.001324   0.000000
   65  SI 1 XXX  -0.002244   0.002685   0.003010   0.000000  -0.055051
   66  SI 1 YYY   0.000000   0.000000   0.000000   0.011537   0.000000
   67  SI 1 ZZZ   0.002364   0.002549  -0.003294   0.000000   0.058164
   68  SI 1 XXY   0.000000   0.000000   0.000000  -0.007849   0.000000
   69  SI 1 XXZ  -0.001654  -0.001635   0.003872   0.000000  -0.042893
   70  SI 1 YYX   0.001571  -0.001724  -0.000567   0.000000   0.036380
   71  SI 1 YYZ  -0.001518  -0.001785   0.000548   0.000000  -0.035142
   72  SI 1 ZZX   0.001440  -0.001879  -0.003471   0.000000   0.037478
   73  SI 1 ZZY   0.000000   0.000000   0.000000  -0.007629   0.000000
   74  SI 1 XYZ   0.000000   0.000000   0.000000   0.003674   0.000000
   75  SI 1XXXX   0.002822  -0.000542  -0.000979   0.000000  -0.006606
   76  SI 1YYYY   0.000978  -0.000000   0.000078   0.000000  -0.002926
   77  SI 1ZZZZ   0.002835   0.000479  -0.000991   0.000000  -0.006603
   78  SI 1XXXY   0.000000   0.000000   0.000000  -0.000288   0.000000
   79  SI 1XXXZ   0.000407   0.000670  -0.000235   0.000000  -0.000545
   80  SI 1YYYX   0.000000   0.000000   0.000000   0.000206   0.000000
   81  SI 1YYYZ   0.000000   0.000000   0.000000  -0.000199   0.000000
   82  SI 1ZZZX  -0.000109  -0.000697  -0.000023   0.000000   0.000609
   83  SI 1ZZZY   0.000000   0.000000   0.000000   0.000297   0.000000
   84  SI 1XXYY  -0.000847   0.000896  -0.000079   0.000000   0.002572
   85  SI 1XXZZ  -0.004109   0.000055   0.001799   0.000000   0.009031
   86  SI 1YYZZ  -0.000871  -0.000896  -0.000058   0.000000   0.002567
   87  SI 1XXYZ   0.000000   0.000000   0.000000  -0.000132   0.000000
   88  SI 1YYXZ  -0.000399   0.000036   0.000347   0.000000  -0.000086
   89  SI 1ZZXY   0.000000   0.000000   0.000000   0.000110   0.000000
   90  SI 1XXXX   0.002061   0.000753  -0.000438   0.000000   0.000760
   91  SI 1YYYY   0.000592  -0.000000   0.000403   0.000000  -0.001194
   92  SI 1ZZZZ   0.002067  -0.000672  -0.000455   0.000000   0.000735
   93  SI 1XXXY   0.000000   0.000000   0.000000   0.001963   0.000000
   94  SI 1XXXZ   0.000257  -0.000864  -0.000246   0.000000  -0.000153
   95  SI 1YYYX   0.000000   0.000000   0.000000  -0.001714   0.000000
   96  SI 1YYYZ   0.000000   0.000000   0.000000   0.001656   0.000000
   97  SI 1ZZZX  -0.000130   0.000901  -0.000121   0.000000  -0.000404
   98  SI 1ZZZY   0.000000   0.000000   0.000000  -0.001994   0.000000
   99  SI 1XXYY  -0.000515  -0.001251  -0.000369   0.000000   0.001026
  100  SI 1XXZZ  -0.003106  -0.000071   0.001138   0.000000  -0.002362
  101  SI 1YYZZ  -0.000525   0.001251  -0.000340   0.000000   0.001071
  102  SI 1XXYZ   0.000000   0.000000   0.000000   0.000454   0.000000
  103  SI 1YYXZ  -0.000171  -0.000050   0.000492   0.000000   0.000748
  104  SI 1ZZXY   0.000000   0.000000   0.000000  -0.000335   0.000000
  105  H  2  S    0.427830   0.578891  -0.313617   0.000000  -0.006555
  106  H  2  S   -0.004659  -0.017095   0.003858   0.000000  -2.943793
  107  H  2  S   -0.085416  -0.057347   0.038259   0.000000  -1.322469
  108  H  2  S   -0.067018  -0.024030   0.021144   0.000000   0.117134
  109  H  2  S   -0.018416  -0.020111   0.010784   0.000000   0.007589
  110  H  2  X   -0.000280  -0.000614   0.000725   0.000000   0.005854
  111  H  2  Y    0.000000   0.000000   0.000000  -0.002706   0.000000
  112  H  2  Z   -0.002005  -0.003860  -0.006945   0.000000   0.353106
  113  H  2  X   -0.001569   0.005146   0.007577   0.000000   0.002818
  114  H  2  Y    0.000000   0.000000   0.000000   0.016215   0.000000
  115  H  2  Z   -0.020229  -0.029461   0.007950   0.000000  -0.077238
  116  H  2  X   -0.000782   0.002502   0.003299   0.000000  -0.000551
  117  H  2  Y    0.000000   0.000000   0.000000   0.004821   0.000000
  118  H  2  Z   -0.008487  -0.009404   0.002651   0.000000  -0.004878
  119  H  2  X   -0.000044   0.000398   0.000616   0.000000   0.000087
  120  H  2  Y    0.000000   0.000000   0.000000   0.001265   0.000000
  121  H  2  Z   -0.001881  -0.001497   0.000350   0.000000  -0.000046
  122  H  2 XX   -0.002652  -0.002713   0.001602   0.000000   0.008242
  123  H  2 YY   -0.002288  -0.000356   0.000448   0.000000   0.004397
  124  H  2 ZZ    0.004940   0.003069  -0.002051   0.000000  -0.012638
  125  H  2 XY    0.000000   0.000000   0.000000  -0.000167   0.000000
  126  H  2 XZ    0.000122  -0.000323  -0.000604   0.000000  -0.004851
  127  H  2 YZ    0.000000   0.000000   0.000000   0.000944   0.000000
  128  H  2 XX   -0.001317  -0.001878   0.000516   0.000000  -0.005427
  129  H  2 YY   -0.001362  -0.000705   0.000650   0.000000  -0.005021
  130  H  2 ZZ    0.002679   0.002582  -0.001166   0.000000   0.010448
  131  H  2 XY    0.000000   0.000000   0.000000   0.000034   0.000000
  132  H  2 XZ    0.000764  -0.001634  -0.001419   0.000000   0.001318
  133  H  2 YZ    0.000000   0.000000   0.000000  -0.001389   0.000000
  134  H  2 XX   -0.000203  -0.000357   0.000064   0.000000   0.000338
  135  H  2 YY   -0.000200  -0.000350   0.000063   0.000000   0.000273
  136  H  2 ZZ    0.000404   0.000707  -0.000127   0.000000  -0.000611
  137  H  2 XY    0.000000   0.000000   0.000000  -0.000003   0.000000
  138  H  2 XZ   -0.000006  -0.000064  -0.000176   0.000000  -0.000254
  139  H  2 YZ    0.000000   0.000000   0.000000  -0.000258   0.000000
  140  H  2 XXX   0.000324  -0.000260  -0.000149   0.000000   0.000675
  141  H  2 YYY   0.000000   0.000000   0.000000   0.000281   0.000000
  142  H  2 ZZZ  -0.001044   0.000527   0.000385   0.000000   0.001843
  143  H  2 XXY   0.000000   0.000000   0.000000   0.000264   0.000000
  144  H  2 XXZ   0.000547   0.000090  -0.000212   0.000000  -0.000618
  145  H  2 YYX  -0.000154  -0.000287   0.000051   0.000000   0.000080
  146  H  2 YYZ   0.000854  -0.000796  -0.000304   0.000000  -0.001855
  147  H  2 ZZX  -0.000280   0.000636   0.000149   0.000000  -0.000985
  148  H  2 ZZY   0.000000   0.000000   0.000000  -0.000641   0.000000
  149  H  2 XYZ   0.000000   0.000000   0.000000  -0.000000   0.000000
  150  H  2 XXX   0.000056  -0.000102  -0.000115   0.000000  -0.000057
  151  H  2 YYY   0.000000   0.000000   0.000000  -0.000139   0.000000
  152  H  2 ZZZ  -0.000204  -0.000239   0.000128   0.000000  -0.001351
  153  H  2 XXY   0.000000   0.000000   0.000000  -0.000094   0.000000
  154  H  2 XXZ   0.000143   0.000216  -0.000080   0.000000   0.000859
  155  H  2 YYX   0.000060  -0.000051  -0.000060   0.000000   0.000058
  156  H  2 YYZ   0.000131   0.000105  -0.000091   0.000000   0.000954
  157  H  2 ZZX  -0.000134   0.000188   0.000214   0.000000   0.000019
  158  H  2 ZZY   0.000000   0.000000   0.000000   0.000280   0.000000
  159  H  2 XYZ   0.000000   0.000000   0.000000   0.000006   0.000000
  160  H  3  S    0.427830  -0.578890  -0.313617   0.000000  -0.006555
  161  H  3  S   -0.004659   0.017095   0.003858   0.000000  -2.943794
  162  H  3  S   -0.085416   0.057347   0.038259   0.000000  -1.322469
  163  H  3  S   -0.067018   0.024030   0.021144   0.000000   0.117135
  164  H  3  S   -0.018416   0.020111   0.010784   0.000000   0.007589
  165  H  3  X    0.001995  -0.003836   0.006966   0.000000  -0.352692
  166  H  3  Y    0.000000   0.000000   0.000000  -0.002706   0.000000
  167  H  3  Z    0.000349  -0.000747  -0.000485   0.000000  -0.018069
  168  H  3  X    0.020162  -0.029621  -0.007683   0.000000   0.077289
  169  H  3  Y    0.000000   0.000000   0.000000   0.016215   0.000000
  170  H  3  Z    0.002268   0.004123  -0.007847   0.000000  -0.000144
  171  H  3  X    0.008455  -0.009484  -0.002535   0.000000   0.004856
  172  H  3  Y    0.000000   0.000000   0.000000   0.004821   0.000000
  173  H  3  Z    0.001076   0.002175  -0.003389   0.000000   0.000720
  174  H  3  X    0.001878  -0.001510  -0.000328   0.000000   0.000049
  175  H  3  Y    0.000000   0.000000   0.000000   0.001265   0.000000
  176  H  3  Z    0.000109   0.000346  -0.000628   0.000000  -0.000085
  177  H  3 XX    0.004924  -0.003081  -0.002010   0.000000  -0.012323
  178  H  3 YY   -0.002288   0.000356   0.000448   0.000000   0.004397
  179  H  3 ZZ   -0.002636   0.002726   0.001562   0.000000   0.007926
  180  H  3 XY    0.000000   0.000000   0.000000  -0.000949   0.000000
  181  H  3 XZ    0.000425   0.000091  -0.000748   0.000000  -0.005673
  182  H  3 YZ    0.000000   0.000000   0.000000   0.000134   0.000000
  183  H  3 XX    0.002628  -0.002675  -0.001079   0.000000   0.010350
  184  H  3 YY   -0.001362   0.000705   0.000650   0.000000  -0.005021
  185  H  3 ZZ   -0.001267   0.001970   0.000429   0.000000  -0.005329
  186  H  3 XY    0.000000   0.000000   0.000000   0.001390   0.000000
  187  H  3 XZ    0.000922   0.001452  -0.001483   0.000000   0.001949
  188  H  3 YZ    0.000000   0.000000   0.000000   0.000014   0.000000
  189  H  3 XX    0.000403  -0.000710  -0.000116   0.000000  -0.000595
  190  H  3 YY   -0.000200   0.000350   0.000063   0.000000   0.000273
  191  H  3 ZZ   -0.000203   0.000360   0.000053   0.000000   0.000322
  192  H  3 XY    0.000000   0.000000   0.000000   0.000258   0.000000
  193  H  3 XZ    0.000018   0.000021  -0.000183   0.000000  -0.000292
  194  H  3 YZ    0.000000   0.000000   0.000000   0.000012   0.000000
  195  H  3 XXX   0.001019   0.000477  -0.000372   0.000000  -0.001914
  196  H  3 YYY   0.000000   0.000000   0.000000   0.000281   0.000000
  197  H  3 ZZZ  -0.000365  -0.000251   0.000165   0.000000  -0.000623
  198  H  3 XXY   0.000000   0.000000   0.000000  -0.000640   0.000000
  199  H  3 XXZ   0.000365   0.000652  -0.000181   0.000000   0.000852
  200  H  3 YYX  -0.000859  -0.000786   0.000306   0.000000   0.001857
  201  H  3 YYZ   0.000124  -0.000314  -0.000040   0.000000  -0.000016
  202  H  3 ZZX  -0.000509   0.000146   0.000193   0.000000   0.000712
  203  H  3 ZZY   0.000000   0.000000   0.000000   0.000263   0.000000
  204  H  3 XYZ   0.000000   0.000000   0.000000  -0.000036   0.000000
  205  H  3 XXX   0.000193  -0.000253  -0.000111   0.000000   0.001348
  206  H  3 YYY   0.000000   0.000000   0.000000  -0.000139   0.000000
  207  H  3 ZZZ  -0.000066  -0.000085   0.000121   0.000000  -0.000009
  208  H  3 XXY   0.000000   0.000000   0.000000   0.000280   0.000000
  209  H  3 XXZ   0.000153   0.000161  -0.000225   0.000000   0.000103
  210  H  3 YYX  -0.000129   0.000107   0.000089   0.000000  -0.000951
  211  H  3 YYZ  -0.000064  -0.000047   0.000063   0.000000  -0.000091
  212  H  3 ZZX  -0.000130   0.000232   0.000060   0.000000  -0.000857
  213  H  3 ZZY   0.000000   0.000000   0.000000  -0.000093   0.000000
  214  H  3 XYZ   0.000000   0.000000   0.000000   0.000020   0.000000

                      6          7          8          9         10
                    0.0585     0.0683     0.0787     0.0877     0.1183
                     A          A          A          A          A   
    1  SI 1  S   -0.000000   0.077095   0.000000   0.000000   0.048703
    2  SI 1  S   -0.000000   0.043891  -0.000000   0.000000   0.104649
    3  SI 1  S    0.000000   0.095265   0.000000   0.000000  -0.941936
    4  SI 1  S    0.000001  -1.309770  -0.000000   0.000000   4.362981
    5  SI 1  S   -0.000002   2.091125  -0.000001   0.000000   0.869667
    6  SI 1  X    0.145345   0.763179   2.728817   0.000000  -1.481349
    7  SI 1  Y    0.000000   0.000000   0.000000   1.617067   0.000000
    8  SI 1  Z    0.150465  -0.737212   2.824934   0.000000   1.430945
    9  SI 1  X    0.009847   0.038902   0.160036   0.000000  -0.101813
   10  SI 1  Y    0.000000   0.000000   0.000000   0.051585   0.000000
   11  SI 1  Z    0.010194  -0.037578   0.165673   0.000000   0.098349
   12  SI 1  X   -0.028745  -0.136140  -0.531408   0.000000   0.346374
   13  SI 1  Y    0.000000   0.000000   0.000000  -0.151288   0.000000
   14  SI 1  Z   -0.029758   0.131508  -0.550126   0.000000  -0.334589
   15  SI 1  X   -0.115570  -0.300186  -1.274855   0.000000   0.825232
   16  SI 1  Y    0.000000   0.000000   0.000000  -0.807015   0.000000
   17  SI 1  Z   -0.119641   0.289973  -1.319759   0.000000  -0.797153
   18  SI 1  X    2.282953  -1.352783   2.333514   0.000000  -0.115894
   19  SI 1  Y    0.000000   0.000000   0.000000  -1.379683   0.000000
   20  SI 1  Z    2.363366   1.306755   2.415707   0.000000   0.111951
   21  SI 1 XX    0.005582  -0.000724  -0.000834   0.000000   0.003163
   22  SI 1 YY    0.000000   0.001270   0.000000   0.000000  -0.006611
   23  SI 1 ZZ   -0.005582  -0.000546   0.000834   0.000000   0.003449
   24  SI 1 XY    0.000000   0.000000   0.000000  -0.000852   0.000000
   25  SI 1 XZ    0.000223   0.002961  -0.000033   0.000000   0.004773
   26  SI 1 YZ    0.000000   0.000000   0.000000   0.000823   0.000000
   27  SI 1 XX    0.047033  -0.010526   0.039549   0.000000  -0.003868
   28  SI 1 YY   -0.000000   0.022630  -0.000000   0.000000   0.004250
   29  SI 1 ZZ   -0.047033  -0.012103  -0.039549   0.000000  -0.000382
   30  SI 1 XY    0.000000   0.000000   0.000000   0.010357   0.000000
   31  SI 1 XZ    0.001880  -0.026300   0.001581   0.000000   0.058127
   32  SI 1 YZ    0.000000   0.000000   0.000000  -0.010005   0.000000
   33  SI 1 XX    0.136038  -0.075662  -0.201534   0.000000   0.133255
   34  SI 1 YY   -0.000000   0.161296  -0.000000   0.000000  -0.317352
   35  SI 1 ZZ   -0.136038  -0.085634   0.201534   0.000000   0.184097
   36  SI 1 XY    0.000000   0.000000   0.000000   0.044260   0.000000
   37  SI 1 XZ    0.005439  -0.166273  -0.008057   0.000000   0.847779
   38  SI 1 YZ    0.000000   0.000000   0.000000  -0.042754   0.000000
   39  SI 1 XX   -0.630214   0.095761  -0.663330   0.000000   0.450866
   40  SI 1 YY    0.000000  -0.182981  -0.000000   0.000000  -0.993194
   41  SI 1 ZZ    0.630214   0.087219   0.663330   0.000000   0.542328
   42  SI 1 XY    0.000000   0.000000   0.000000   0.141795   0.000000
   43  SI 1 XZ   -0.025196  -0.142435  -0.026520   0.000000   1.525111
   44  SI 1 YZ    0.000000   0.000000   0.000000  -0.136971   0.000000
   45  SI 1 XXX  -0.001161  -0.003822  -0.008887   0.000000   0.007326
   46  SI 1 YYY   0.000000   0.000000   0.000000   0.011839   0.000000
   47  SI 1 ZZZ  -0.000912   0.003851  -0.008557   0.000000  -0.007567
   48  SI 1 XXY   0.000000   0.000000   0.000000  -0.007928   0.000000
   49  SI 1 XXZ   0.003080  -0.000475   0.003908   0.000000   0.003392
   50  SI 1 YYX  -0.001792   0.004856   0.007316   0.000000  -0.006999
   51  SI 1 YYZ  -0.001855  -0.004691   0.007573   0.000000   0.006761
   52  SI 1 ZZX   0.003350   0.000271   0.004608   0.000000  -0.002830
   53  SI 1 ZZY   0.000000   0.000000   0.000000  -0.007956   0.000000
   54  SI 1 XYZ   0.000000   0.000000   0.000000  -0.000473   0.000000
   55  SI 1 XXX  -0.061640   0.088890   0.023959   0.000000  -0.108285
   56  SI 1 YYY   0.000000   0.000000   0.000000  -0.002967   0.000000
   57  SI 1 ZZZ  -0.058146  -0.095466   0.022847   0.000000   0.119496
   58  SI 1 XXY   0.000000   0.000000   0.000000   0.001752   0.000000
   59  SI 1 XXZ   0.042154   0.089966  -0.013315   0.000000  -0.152402
   60  SI 1 YYX   0.034636  -0.039457  -0.016747   0.000000   0.008198
   61  SI 1 YYZ   0.035856   0.038114  -0.017337   0.000000  -0.007919
   62  SI 1 ZZX   0.048063  -0.079801  -0.015398   0.000000   0.137081
   63  SI 1 ZZY   0.000000   0.000000   0.000000   0.002228   0.000000
   64  SI 1 XYZ   0.000000   0.000000   0.000000   0.007925   0.000000
   65  SI 1 XXX   0.081350  -0.021305   0.028186   0.000000  -0.354227
   66  SI 1 YYY   0.000000   0.000000   0.000000   0.067609   0.000000
   67  SI 1 ZZZ   0.077705   0.020812   0.026856   0.000000   0.391258
   68  SI 1 XXY   0.000000   0.000000   0.000000  -0.045283   0.000000
   69  SI 1 XXZ  -0.043562   0.006115  -0.015929   0.000000  -0.503278
   70  SI 1 YYX  -0.058625   0.035235  -0.019419   0.000000   0.022412
   71  SI 1 YYZ  -0.060690  -0.034036  -0.020103   0.000000  -0.021650
   72  SI 1 ZZX  -0.050517  -0.006651  -0.018397   0.000000   0.452833
   73  SI 1 ZZY   0.000000   0.000000   0.000000  -0.045425   0.000000
   74  SI 1 XYZ   0.000000   0.000000   0.000000  -0.002361   0.000000
   75  SI 1XXXX   0.003006  -0.003309   0.002162   0.000000  -0.008202
   76  SI 1YYYY   0.000000  -0.001059   0.000000   0.000000  -0.004130
   77  SI 1ZZZZ  -0.002348  -0.003390  -0.002438   0.000000  -0.008425
   78  SI 1XXXY   0.000000   0.000000   0.000000   0.005055   0.000000
   79  SI 1XXXZ  -0.007106  -0.001188   0.003063   0.000000  -0.003145
   80  SI 1YYYX   0.000000   0.000000   0.000000  -0.003829   0.000000
   81  SI 1YYYZ   0.000000   0.000000   0.000000   0.003699   0.000000
   82  SI 1ZZZX   0.007247  -0.000570  -0.002942   0.000000  -0.001727
   83  SI 1ZZZY   0.000000   0.000000   0.000000  -0.005196   0.000000
   84  SI 1XXYY  -0.004702   0.000859  -0.004040   0.000000   0.003431
   85  SI 1XXZZ  -0.000578   0.004954   0.000242   0.000000   0.010976
   86  SI 1YYZZ   0.004702   0.001001   0.004040   0.000000   0.003823
   87  SI 1XXYZ   0.000000   0.000000   0.000000   0.002009   0.000000
   88  SI 1YYXZ  -0.000188   0.002359  -0.000162   0.000000   0.006537
   89  SI 1ZZXY   0.000000   0.000000   0.000000  -0.001644   0.000000
   90  SI 1XXXX   0.003497  -0.031123  -0.009118   0.000000   0.062016
   91  SI 1YYYY  -0.000000  -0.011497   0.000000   0.000000   0.012327
   92  SI 1ZZZZ  -0.003555  -0.031362   0.009314   0.000000   0.064079
   93  SI 1XXXY   0.000000   0.000000   0.000000  -0.008248   0.000000
   94  SI 1XXXZ   0.000724  -0.005431  -0.002381   0.000000   0.028644
   95  SI 1YYYX   0.000000   0.000000   0.000000   0.004954   0.000000
   96  SI 1YYYZ   0.000000   0.000000   0.000000  -0.004785   0.000000
   97  SI 1ZZZX  -0.000540   0.000215   0.001899   0.000000   0.016396
   98  SI 1ZZZY   0.000000   0.000000   0.000000   0.008619   0.000000
   99  SI 1XXYY  -0.006194   0.009888   0.016189   0.000000  -0.009015
  100  SI 1XXZZ   0.000051   0.044784  -0.000172   0.000000  -0.099923
  101  SI 1YYZZ   0.006194   0.010307  -0.016189   0.000000  -0.012639
  102  SI 1XXYZ   0.000000   0.000000   0.000000  -0.005143   0.000000
  103  SI 1YYXZ  -0.000248   0.006999   0.000647   0.000000  -0.060428
  104  SI 1ZZXY   0.000000   0.000000   0.000000   0.004420   0.000000
  105  H  2  S   -0.094678  -0.053899  -0.022870   0.000000   0.035058
  106  H  2  S   -3.214715  -0.575501  -6.860742   0.000000  -0.056706
  107  H  2  S   -0.607511  -0.268014  -1.566348   0.000000  -2.586840
  108  H  2  S    0.201198   0.348542  -0.134486   0.000000  -0.328364
  109  H  2  S   -0.015589  -0.021700   0.027593   0.000000  -0.007503
  110  H  2  X   -0.081945   0.183231   0.022033   0.000000  -1.142223
  111  H  2  Y    0.000000   0.000000   0.000000   0.253221   0.000000
  112  H  2  Z   -0.155204  -0.209109   0.683344   0.000000   0.361394
  113  H  2  X   -0.015396   0.035257  -0.001195   0.000000  -0.154125
  114  H  2  Y    0.000000   0.000000   0.000000  -0.022025   0.000000
  115  H  2  Z   -0.024519  -0.001364  -0.066870   0.000000  -0.004340
  116  H  2  X   -0.000029   0.001196   0.003514   0.000000   0.017240
  117  H  2  Y    0.000000   0.000000   0.000000   0.013029   0.000000
  118  H  2  Z   -0.006798  -0.012639   0.003500   0.000000   0.001139
  119  H  2  X    0.000470  -0.000469  -0.000422   0.000000  -0.001210
  120  H  2  Y    0.000000   0.000000   0.000000  -0.001348   0.000000
  121  H  2  Z    0.001777   0.002802  -0.001109   0.000000   0.000851
  122  H  2 XX    0.005055   0.000639   0.000327   0.000000   0.007146
  123  H  2 YY   -0.010948   0.013860   0.008444   0.000000  -0.050518
  124  H  2 ZZ    0.005893  -0.014500  -0.008771   0.000000   0.043373
  125  H  2 XY    0.000000   0.000000   0.000000  -0.005033   0.000000
  126  H  2 XZ    0.035435  -0.045374  -0.003928   0.000000   0.173713
  127  H  2 YZ    0.000000   0.000000   0.000000  -0.031066   0.000000
  128  H  2 XX   -0.002881  -0.000927  -0.006531   0.000000  -0.003285
  129  H  2 YY   -0.000858   0.000967  -0.007659   0.000000  -0.007191
  130  H  2 ZZ    0.003738  -0.000041   0.014190   0.000000   0.010476
  131  H  2 XY    0.000000   0.000000   0.000000   0.000139   0.000000
  132  H  2 XZ    0.002588  -0.004092  -0.001858   0.000000  -0.001615
  133  H  2 YZ    0.000000   0.000000   0.000000  -0.005509   0.000000
  134  H  2 XX    0.000421   0.000059   0.000550   0.000000   0.000196
  135  H  2 YY   -0.000032  -0.000168   0.000744   0.000000   0.000657
  136  H  2 ZZ   -0.000389   0.000110  -0.001294   0.000000  -0.000853
  137  H  2 XY    0.000000   0.000000   0.000000  -0.000022   0.000000
  138  H  2 XZ   -0.000303   0.000519   0.000206   0.000000   0.000188
  139  H  2 YZ    0.000000   0.000000   0.000000   0.000471   0.000000
  140  H  2 XXX   0.003921  -0.006602  -0.002173   0.000000   0.009633
  141  H  2 YYY   0.000000   0.000000   0.000000  -0.007642   0.000000
  142  H  2 ZZZ  -0.001121   0.001959  -0.002412   0.000000  -0.009277
  143  H  2 XXY   0.000000   0.000000   0.000000  -0.004522   0.000000
  144  H  2 XXZ  -0.000754   0.001179   0.001572   0.000000   0.001018
  145  H  2 YYX   0.001977   0.000310   0.000646   0.000000   0.001275
  146  H  2 YYZ   0.002258  -0.003807   0.001664   0.000000   0.011429
  147  H  2 ZZX  -0.007238   0.008547   0.002270   0.000000  -0.014199
  148  H  2 ZZY   0.000000   0.000000   0.000000   0.014774   0.000000
  149  H  2 XYZ   0.000000   0.000000   0.000000   0.001079   0.000000
  150  H  2 XXX  -0.000160   0.000584   0.000140   0.000000  -0.000877
  151  H  2 YYY   0.000000   0.000000   0.000000   0.000515   0.000000
  152  H  2 ZZZ  -0.000228   0.000300  -0.001830   0.000000  -0.000661
  153  H  2 XXY   0.000000   0.000000   0.000000   0.000399   0.000000
  154  H  2 XXZ   0.000310  -0.000386   0.001203   0.000000   0.000945
  155  H  2 YYX  -0.000185  -0.000203  -0.000154   0.000000   0.000253
  156  H  2 YYZ  -0.000005  -0.000017   0.001252   0.000000  -0.000058
  157  H  2 ZZX   0.000399  -0.000581  -0.000034   0.000000   0.000924
  158  H  2 ZZY   0.000000   0.000000   0.000000  -0.001091   0.000000
  159  H  2 XYZ   0.000000   0.000000   0.000000  -0.000161   0.000000
  160  H  3  S    0.094678  -0.053899   0.022870   0.000000   0.035058
  161  H  3  S    3.214716  -0.575500   6.860743   0.000000  -0.056706
  162  H  3  S    0.607511  -0.268014   1.566349   0.000000  -2.586840
  163  H  3  S   -0.201198   0.348541   0.134486   0.000000  -0.328364
  164  H  3  S    0.015589  -0.021700  -0.027593   0.000000  -0.007503
  165  H  3  X   -0.152276   0.215325   0.682173   0.000000  -0.400701
  166  H  3  Y    0.000000   0.000000   0.000000   0.253221   0.000000
  167  H  3  Z   -0.087266  -0.175885   0.045666   0.000000   1.129034
  168  H  3  X   -0.023972   0.002583  -0.066789   0.000000  -0.000996
  169  H  3  Y    0.000000   0.000000   0.000000  -0.022025   0.000000
  170  H  3  Z   -0.016235  -0.035188  -0.003509   0.000000   0.154183
  171  H  3  X   -0.006793   0.012673   0.003376   0.000000  -0.000542
  172  H  3  Y    0.000000   0.000000   0.000000   0.013029   0.000000
  173  H  3  Z   -0.000265  -0.000758   0.003633   0.000000  -0.017269
  174  H  3  X    0.001759  -0.002816  -0.001093   0.000000  -0.000893
  175  H  3  Y    0.000000   0.000000   0.000000  -0.001348   0.000000
  176  H  3  Z    0.000532   0.000372  -0.000460   0.000000   0.001180
  177  H  3 XX   -0.003769  -0.011764   0.008525   0.000000   0.032924
  178  H  3 YY    0.010948   0.013860  -0.008444   0.000000  -0.050518
  179  H  3 ZZ   -0.007178  -0.002097  -0.000081   0.000000   0.017594
  180  H  3 XY    0.000000   0.000000   0.000000   0.030873   0.000000
  181  H  3 XZ   -0.035384  -0.045870   0.004282   0.000000   0.174744
  182  H  3 YZ    0.000000   0.000000   0.000000   0.006105   0.000000
  183  H  3 XX   -0.003576   0.000203  -0.014276   0.000000   0.010556
  184  H  3 YY    0.000858   0.000967   0.007659   0.000000  -0.007191
  185  H  3 ZZ    0.002718  -0.001171   0.006618   0.000000  -0.003366
  186  H  3 XY    0.000000   0.000000   0.000000   0.005511   0.000000
  187  H  3 XZ   -0.002846  -0.004047   0.001027   0.000000  -0.001061
  188  H  3 YZ    0.000000   0.000000   0.000000   0.000051   0.000000
  189  H  3 XX    0.000370   0.000079   0.001304   0.000000  -0.000863
  190  H  3 YY    0.000032  -0.000168  -0.000744   0.000000   0.000657
  191  H  3 ZZ   -0.000402   0.000090  -0.000560   0.000000   0.000206
  192  H  3 XY    0.000000   0.000000   0.000000  -0.000471   0.000000
  193  H  3 XZ    0.000335   0.000520  -0.000131   0.000000   0.000145
  194  H  3 YZ    0.000000   0.000000   0.000000   0.000005   0.000000
  195  H  3 XXX  -0.000562  -0.001298  -0.002579   0.000000   0.008161
  196  H  3 YYY   0.000000   0.000000   0.000000  -0.007642   0.000000
  197  H  3 ZZZ   0.003836   0.006476  -0.002042   0.000000  -0.009656
  198  H  3 XXY   0.000000   0.000000   0.000000   0.014687   0.000000
  199  H  3 XXZ  -0.007201  -0.008510   0.002037   0.000000   0.014625
  200  H  3 YYX   0.002189   0.003816   0.001641   0.000000  -0.011378
  201  H  3 YYZ   0.002054  -0.000179   0.000703   0.000000  -0.001670
  202  H  3 ZZX  -0.001434  -0.002074   0.001819   0.000000   0.000429
  203  H  3 ZZY   0.000000   0.000000   0.000000  -0.004434   0.000000
  204  H  3 XYZ   0.000000   0.000000   0.000000   0.001847   0.000000
  205  H  3 XXX  -0.000257  -0.000344  -0.001821   0.000000   0.000729
  206  H  3 YYY   0.000000   0.000000   0.000000   0.000515   0.000000
  207  H  3 ZZZ  -0.000134  -0.000552   0.000233   0.000000   0.000800
  208  H  3 XXY   0.000000   0.000000   0.000000  -0.001079   0.000000
  209  H  3 XXZ   0.000365   0.000537  -0.000202   0.000000  -0.000823
  210  H  3 YYX   0.000002   0.000010   0.001257   0.000000   0.000067
  211  H  3 YYZ  -0.000185   0.000204  -0.000111   0.000000  -0.000251
  212  H  3 ZZX   0.000344   0.000451   0.001187   0.000000  -0.001045
  213  H  3 ZZY   0.000000   0.000000   0.000000   0.000388   0.000000
  214  H  3 XYZ   0.000000   0.000000   0.000000  -0.000220   0.000000

                     11         12         13         14         15
                    0.1218     0.1243     0.1278     0.1443     0.1544
                     A          A          A          A          A   
    1  SI 1  S   -0.112758   0.000000   0.000000   0.000000  -0.452796
    2  SI 1  S   -0.213487   0.000000   0.000000  -0.000000   0.061388
    3  SI 1  S    1.450059   0.000000   0.000000  -0.000000  -0.128179
    4  SI 1  S   -2.405671   0.000000   0.000000  -0.000001   0.476389
    5  SI 1  S    1.968172   0.000000   0.000000  -0.000009  12.969820
    6  SI 1  X    2.798946   0.000000   0.000000  -2.983055  -4.101212
    7  SI 1  Y    0.000000  -0.000003   2.708203   0.000000   0.000000
    8  SI 1  Z   -2.703712   0.000000   0.000000  -3.088135   3.961664
    9  SI 1  X    0.185846   0.000000   0.000000  -0.202733  -0.247660
   10  SI 1  Y    0.000000  -0.000000   0.158333   0.000000   0.000000
   11  SI 1  Z   -0.179522   0.000000   0.000000  -0.209874   0.239233
   12  SI 1  X   -0.635565   0.000000   0.000000   0.669708   0.781895
   13  SI 1  Y    0.000000   0.000000  -0.523516   0.000000   0.000000
   14  SI 1  Z    0.613940   0.000000   0.000000   0.693298  -0.755290
   15  SI 1  X   -1.532526   0.000000   0.000000   1.747082   2.417835
   16  SI 1  Y    0.000000   0.000001  -1.277338   0.000000   0.000000
   17  SI 1  Z    1.480382   0.000000   0.000000   1.808623  -2.335566
   18  SI 1  X   -0.354815   0.000000   0.000000  -3.305813  -1.800216
   19  SI 1  Y    0.000000   0.000000  -0.146846   0.000000   0.000000
   20  SI 1  Z    0.342743   0.000000   0.000000  -3.422257   1.738958
   21  SI 1 XX   -0.004280   0.000000   0.000000   0.033341   0.011485
   22  SI 1 YY    0.008278   0.000000   0.000000   0.000000  -0.022942
   23  SI 1 ZZ   -0.003998   0.000000   0.000000  -0.033341   0.011457
   24  SI 1 XY    0.000000   0.004951  -0.004708   0.000000   0.000000
   25  SI 1 XZ    0.004700   0.000000   0.000000   0.001333  -0.000458
   26  SI 1 YZ    0.000000   0.005125   0.004548   0.000000   0.000000
   27  SI 1 XX    0.019533   0.000000   0.000000  -0.064871  -0.046907
   28  SI 1 YY   -0.041750   0.000000   0.000000  -0.000000   0.093901
   29  SI 1 ZZ    0.022216   0.000000   0.000000   0.064871  -0.046994
   30  SI 1 XY    0.000000   0.038186  -0.042102   0.000000   0.000000
   31  SI 1 XZ    0.044739   0.000000   0.000000  -0.002594  -0.001448
   32  SI 1 YZ    0.000000   0.039531   0.040670   0.000000   0.000000
   33  SI 1 XX   -0.076179   0.000000   0.000000   0.381041   0.034225
   34  SI 1 YY    0.116676   0.000000   0.000000   0.000000  -0.066152
   35  SI 1 ZZ   -0.040497   0.000000   0.000000  -0.381041   0.031927
   36  SI 1 XY    0.000000   0.198732  -0.168932   0.000000   0.000000
   37  SI 1 XZ    0.594983   0.000000   0.000000   0.015234  -0.038315
   38  SI 1 YZ    0.000000   0.205731   0.163184   0.000000   0.000000
   39  SI 1 XX   -0.450000   0.000000   0.000000   2.261321   0.574462
   40  SI 1 YY    0.825239   0.000000   0.000000   0.000001  -1.144982
   41  SI 1 ZZ   -0.375239   0.000000   0.000000  -2.261322   0.570519
   42  SI 1 XY    0.000000   1.048714  -1.032842   0.000000   0.000000
   43  SI 1 XZ    1.246608   0.000000   0.000000   0.090409  -0.065680
   44  SI 1 YZ    0.000000   1.085652   0.997701   0.000000   0.000000
   45  SI 1 XXX  -0.020212   0.000000   0.000000   0.009330   0.012139
   46  SI 1 YYY   0.000000   0.000000  -0.002501   0.000000   0.000000
   47  SI 1 ZZZ   0.021502   0.000000   0.000000   0.008770  -0.012694
   48  SI 1 XXY   0.000000  -0.006022   0.001653   0.000000   0.000000
   49  SI 1 XXZ  -0.017708   0.000000   0.000000  -0.006768   0.007711
   50  SI 1 YYX   0.011532   0.000000   0.000000  -0.004828  -0.009649
   51  SI 1 YYZ  -0.011140   0.000000   0.000000  -0.004998   0.009320
   52  SI 1 ZZX   0.015585   0.000000   0.000000  -0.007690  -0.006637
   53  SI 1 ZZY   0.000000   0.006022   0.001702   0.000000   0.000000
   54  SI 1 XYZ   0.000000  -0.000241   0.000805   0.000000   0.000000
   55  SI 1 XXX  -0.010994   0.000000   0.000000   0.010895   0.084293
   56  SI 1 YYY   0.000000   0.000000  -0.015871   0.000000   0.000000
   57  SI 1 ZZZ   0.014911   0.000000   0.000000   0.010509  -0.089654
   58  SI 1 XXY   0.000000  -0.015118   0.010741   0.000000   0.000000
   59  SI 1 XXZ  -0.052624   0.000000   0.000000  -0.004560   0.073609
   60  SI 1 YYX  -0.033768   0.000000   0.000000  -0.009215  -0.048318
   61  SI 1 YYZ   0.032619   0.000000   0.000000  -0.009540   0.046674
   62  SI 1 ZZX   0.048518   0.000000   0.000000  -0.005402  -0.064773
   63  SI 1 ZZY   0.000000   0.015118   0.010552   0.000000   0.000000
   64  SI 1 XYZ   0.000000  -0.000604  -0.003151   0.000000   0.000000
   65  SI 1 XXX  -0.045852   0.000000   0.000000  -0.283008  -0.125855
   66  SI 1 YYY   0.000000   0.000000  -0.300313   0.000000   0.000000
   67  SI 1 ZZZ   0.063615   0.000000   0.000000  -0.267998   0.131333
   68  SI 1 XXY   0.000000  -0.379047   0.201849   0.000000   0.000000
   69  SI 1 XXZ  -0.238567   0.000000   0.000000   0.180632  -0.076141
   70  SI 1 YYX  -0.158616   0.000000   0.000000   0.172837   0.103586
   71  SI 1 YYZ   0.153219   0.000000   0.000000   0.178925  -0.100061
   72  SI 1 ZZX   0.220132   0.000000   0.000000   0.206858   0.065267
   73  SI 1 ZZY   0.000000   0.379047   0.201063   0.000000   0.000000
   74  SI 1 XYZ   0.000000  -0.015154  -0.013120   0.000000   0.000000
   75  SI 1XXXX   0.008183   0.000000   0.000000  -0.007702  -0.017605
   76  SI 1YYYY   0.007048   0.000000   0.000000   0.000000  -0.008063
   77  SI 1ZZZZ   0.008011   0.000000   0.000000   0.007321  -0.017535
   78  SI 1XXXY   0.000000  -0.010936   0.010905   0.000000   0.000000
   79  SI 1XXXZ  -0.001306   0.000000   0.000000   0.003961  -0.000763
   80  SI 1YYYX   0.000000   0.009086  -0.008995   0.000000   0.000000
   81  SI 1YYYZ   0.000000   0.009406   0.008689   0.000000   0.000000
   82  SI 1ZZZX  -0.002450   0.000000   0.000000  -0.004354   0.002286
   83  SI 1ZZZY   0.000000  -0.010769  -0.011131   0.000000   0.000000
   84  SI 1XXYY  -0.006341   0.000000   0.000000   0.013195   0.007143
   85  SI 1XXZZ  -0.008033   0.000000   0.000000   0.000335   0.023781
   86  SI 1YYZZ  -0.006039   0.000000   0.000000  -0.013195   0.007021
   87  SI 1XXYZ   0.000000   0.001829   0.003277   0.000000   0.000000
   88  SI 1YYXZ   0.005039   0.000000   0.000000   0.000528  -0.002043
   89  SI 1ZZXY   0.000000   0.002482  -0.002562   0.000000   0.000000
   90  SI 1XXXX  -0.016599   0.000000   0.000000   0.013336  -0.012703
   91  SI 1YYYY  -0.021660   0.000000   0.000000   0.000000  -0.004837
   92  SI 1ZZZZ  -0.015231   0.000000   0.000000  -0.012460  -0.012918
   93  SI 1XXXY   0.000000   0.040031  -0.037718   0.000000   0.000000
   94  SI 1XXXZ   0.014117   0.000000   0.000000  -0.009217  -0.003492
   95  SI 1YYYX   0.000000  -0.031117   0.028472   0.000000   0.000000
   96  SI 1YYYZ   0.000000  -0.032213  -0.027503   0.000000   0.000000
   97  SI 1ZZZX   0.015750   0.000000   0.000000   0.009893  -0.001187
   98  SI 1ZZZY   0.000000   0.039204   0.038785   0.000000   0.000000
   99  SI 1XXYY   0.020226   0.000000   0.000000  -0.022657   0.004060
  100  SI 1XXZZ   0.008933   0.000000   0.000000  -0.000770   0.018255
  101  SI 1YYZZ   0.017823   0.000000   0.000000   0.022657   0.004437
  102  SI 1XXYZ   0.000000  -0.009380  -0.015137   0.000000   0.000000
  103  SI 1YYXZ  -0.040071   0.000000   0.000000  -0.000906   0.006278
  104  SI 1ZZXY   0.000000  -0.011960   0.012405   0.000000   0.000000
  105  H  2  S   -0.035351   0.000000   0.000000  -0.193122   0.041713
  106  H  2  S   -0.833192   0.000000   0.000000   7.251456  -4.463364
  107  H  2  S    0.827500   0.000000   0.000000   2.860331  -3.404709
  108  H  2  S   -0.067501   0.000000   0.000000  -0.079359   0.511026
  109  H  2  S    0.023581   0.000000   0.000000   0.021393  -0.013585
  110  H  2  X   -0.918347   0.000000   0.000000  -0.012048   0.058609
  111  H  2  Y    0.000000  -0.932167  -0.817136   0.000000   0.000000
  112  H  2  Z    0.046533   0.000000   0.000000  -0.269359   0.746285
  113  H  2  X   -0.096320   0.000000   0.000000   0.003144   0.011819
  114  H  2  Y    0.000000  -0.009894  -0.011974   0.000000   0.000000
  115  H  2  Z    0.180759   0.000000   0.000000   0.122517  -0.224351
  116  H  2  X    0.010942   0.000000   0.000000   0.002988  -0.001225
  117  H  2  Y    0.000000   0.001866   0.002665   0.000000   0.000000
  118  H  2  Z   -0.006765   0.000000   0.000000   0.004366  -0.002956
  119  H  2  X   -0.000953   0.000000   0.000000   0.000563   0.000465
  120  H  2  Y    0.000000   0.000998   0.000803   0.000000   0.000000
  121  H  2  Z   -0.000501   0.000000   0.000000  -0.002799   0.003465
  122  H  2 XX    0.098068   0.000000   0.000000   0.021423  -0.013597
  123  H  2 YY    0.039196   0.000000   0.000000   0.045622   0.000113
  124  H  2 ZZ   -0.137264   0.000000   0.000000  -0.067045   0.013484
  125  H  2 XY    0.000000  -0.009002   0.014495   0.000000   0.000000
  126  H  2 XZ    0.123377   0.000000   0.000000  -0.017112  -0.002767
  127  H  2 YZ    0.000000   0.099258   0.090036   0.000000   0.000000
  128  H  2 XX    0.008479   0.000000   0.000000   0.014562  -0.014383
  129  H  2 YY    0.014749   0.000000   0.000000   0.009712  -0.013966
  130  H  2 ZZ   -0.023228   0.000000   0.000000  -0.024274   0.028350
  131  H  2 XY    0.000000   0.003346  -0.004417   0.000000   0.000000
  132  H  2 XZ   -0.002572   0.000000   0.000000  -0.001039   0.003331
  133  H  2 YZ    0.000000  -0.010738  -0.011487   0.000000   0.000000
  134  H  2 XX   -0.000569   0.000000   0.000000  -0.001056   0.001200
  135  H  2 YY   -0.001599   0.000000   0.000000  -0.000499   0.001025
  136  H  2 ZZ    0.002168   0.000000   0.000000   0.001555  -0.002224
  137  H  2 XY    0.000000  -0.000523   0.000707   0.000000   0.000000
  138  H  2 XZ    0.000535   0.000000   0.000000  -0.000154  -0.000720
  139  H  2 YZ    0.000000   0.001544   0.001747   0.000000   0.000000
  140  H  2 XXX   0.006100   0.000000   0.000000  -0.000800   0.003355
  141  H  2 YYY   0.000000   0.004300   0.001860   0.000000   0.000000
  142  H  2 ZZZ   0.023553   0.000000   0.000000   0.011828  -0.000965
  143  H  2 XXY   0.000000   0.001534   0.000524   0.000000   0.000000
  144  H  2 XXZ  -0.016469   0.000000   0.000000  -0.005479   0.004365
  145  H  2 YYX   0.002493   0.000000   0.000000  -0.002966   0.001941
  146  H  2 YYZ  -0.015130   0.000000   0.000000  -0.010390  -0.003070
  147  H  2 ZZX  -0.010678   0.000000   0.000000   0.004040  -0.006442
  148  H  2 ZZY   0.000000  -0.007304  -0.003020   0.000000   0.000000
  149  H  2 XYZ   0.000000  -0.001383   0.001527   0.000000   0.000000
  150  H  2 XXX  -0.000566   0.000000   0.000000  -0.000147  -0.000266
  151  H  2 YYY   0.000000  -0.000650  -0.000570   0.000000   0.000000
  152  H  2 ZZZ   0.000977   0.000000   0.000000   0.002213  -0.003219
  153  H  2 XXY   0.000000  -0.000266  -0.000163   0.000000   0.000000
  154  H  2 XXZ  -0.000756   0.000000   0.000000  -0.001781   0.001716
  155  H  2 YYX  -0.000022   0.000000   0.000000   0.000401  -0.000098
  156  H  2 YYZ  -0.000555   0.000000   0.000000  -0.001189   0.002603
  157  H  2 ZZX   0.000781   0.000000   0.000000  -0.000204   0.000454
  158  H  2 ZZY   0.000000   0.001138   0.000928   0.000000   0.000000
  159  H  2 XYZ   0.000000   0.000373  -0.000392   0.000000   0.000000
  160  H  3  S   -0.035351   0.000000   0.000000   0.193122   0.041713
  161  H  3  S   -0.833192   0.000000   0.000000  -7.251450  -4.463378
  162  H  3  S    0.827501   0.000000   0.000000  -2.860325  -3.404714
  163  H  3  S   -0.067501   0.000000   0.000000   0.079358   0.511027
  164  H  3  S    0.023581   0.000000   0.000000  -0.021393  -0.013585
  165  H  3  X   -0.078283   0.000000   0.000000  -0.268779  -0.743810
  166  H  3  Y    0.000000   0.932168  -0.817136   0.000000   0.000000
  167  H  3  Z    0.916187   0.000000   0.000000  -0.021361  -0.084397
  168  H  3  X   -0.183984   0.000000   0.000000   0.122335   0.224626
  169  H  3  Y    0.000000   0.009894  -0.011974   0.000000   0.000000
  170  H  3  Z    0.090008   0.000000   0.000000   0.007382  -0.004048
  171  H  3  X    0.007139   0.000000   0.000000   0.004260   0.002912
  172  H  3  Y    0.000000  -0.001866   0.002665   0.000000   0.000000
  173  H  3  Z   -0.010701   0.000000   0.000000   0.003137   0.001326
  174  H  3  X    0.000468   0.000000   0.000000  -0.002817  -0.003446
  175  H  3  Y    0.000000  -0.000998   0.000803   0.000000   0.000000
  176  H  3  Z    0.000969   0.000000   0.000000   0.000466  -0.000585
  177  H  3 XX   -0.144372   0.000000   0.000000   0.065914   0.013617
  178  H  3 YY    0.039196   0.000000   0.000000  -0.045622   0.000113
  179  H  3 ZZ    0.105177   0.000000   0.000000  -0.020293  -0.013730
  180  H  3 XY    0.000000   0.099510  -0.089481   0.000000   0.000000
  181  H  3 XZ    0.113684   0.000000   0.000000   0.020604  -0.001679
  182  H  3 YZ    0.000000  -0.005562  -0.017602   0.000000   0.000000
  183  H  3 XX   -0.023036   0.000000   0.000000   0.024165   0.028099
  184  H  3 YY    0.014749   0.000000   0.000000  -0.009712  -0.013966
  185  H  3 ZZ    0.008287   0.000000   0.000000  -0.014454  -0.014132
  186  H  3 XY    0.000000  -0.010847   0.011327   0.000000   0.000000
  187  H  3 XZ   -0.003832   0.000000   0.000000   0.002587   0.005030
  188  H  3 YZ    0.000000   0.002972   0.004812   0.000000   0.000000
  189  H  3 XX    0.002132   0.000000   0.000000  -0.001561  -0.002177
  190  H  3 YY   -0.001599   0.000000   0.000000   0.000499   0.001025
  191  H  3 ZZ   -0.000534   0.000000   0.000000   0.001062   0.001152
  192  H  3 XY    0.000000   0.001561  -0.001721   0.000000   0.000000
  193  H  3 XZ    0.000643   0.000000   0.000000   0.000050  -0.000855
  194  H  3 YZ    0.000000  -0.000470  -0.000767   0.000000   0.000000
  195  H  3 XXX  -0.024291   0.000000   0.000000   0.011480   0.000454
  196  H  3 YYY   0.000000  -0.004300   0.001860   0.000000   0.000000
  197  H  3 ZZZ  -0.004789   0.000000   0.000000  -0.001211  -0.003669
  198  H  3 XXY   0.000000   0.007210  -0.003107   0.000000   0.000000
  199  H  3 XXZ   0.008394   0.000000   0.000000   0.004949   0.006756
  200  H  3 YYX   0.015207   0.000000   0.000000  -0.010281   0.003135
  201  H  3 YYZ  -0.001968   0.000000   0.000000  -0.003324  -0.001833
  202  H  3 ZZX   0.017383   0.000000   0.000000  -0.005121  -0.003744
  203  H  3 ZZY   0.000000  -0.001441   0.000611   0.000000   0.000000
  204  H  3 XYZ   0.000000   0.001733   0.001382   0.000000   0.000000
  205  H  3 XXX  -0.000913   0.000000   0.000000   0.002220   0.003244
  206  H  3 YYY   0.000000   0.000650  -0.000570   0.000000   0.000000
  207  H  3 ZZZ   0.000621   0.000000   0.000000  -0.000284   0.000132
  208  H  3 XXY   0.000000  -0.001114   0.000950   0.000000   0.000000
  209  H  3 XXZ  -0.000875   0.000000   0.000000   0.000022  -0.000184
  210  H  3 YYX   0.000554   0.000000   0.000000  -0.001202  -0.002605
  211  H  3 YYZ   0.000041   0.000000   0.000000   0.000359   0.000008
  212  H  3 ZZX   0.000671   0.000000   0.000000  -0.001777  -0.001747
  213  H  3 ZZY   0.000000   0.000242  -0.000185   0.000000   0.000000
  214  H  3 XYZ   0.000000  -0.000428  -0.000347   0.000000   0.000000

                     16         17         18         19         20
                    0.2410     0.2480     0.2789     0.2869     0.2940
                     A          A          A          A          A   
    1  SI 1  S    0.000000   0.160134  -0.094664   0.000000  -0.000000
    2  SI 1  S    0.000000   0.228589  -0.280776   0.000000  -0.000000
    3  SI 1  S   -0.000003  -2.700243   1.509023   0.000000   0.000001
    4  SI 1  S    0.000008   5.279994   6.330107   0.000000  -0.000002
    5  SI 1  S    0.000012   7.240371  -3.205833   0.000000   0.000001
    6  SI 1  X    7.290994  -5.304839   2.209832   0.000000   5.774466
    7  SI 1  Y    0.000000   0.000000   0.000000  -0.000003   0.000000
    8  SI 1  Z    7.547824   5.124317  -2.134644   0.000000   5.977858
    9  SI 1  X    0.450683  -0.323197   0.129095   0.000000   0.368099
   10  SI 1  Y    0.000000   0.000000   0.000000  -0.000000   0.000000
   11  SI 1  Z    0.466559   0.312199  -0.124702   0.000000   0.381064
   12  SI 1  X   -1.521284   1.077174  -0.428429   0.000000  -1.219810
   13  SI 1  Y    0.000000   0.000000   0.000000   0.000001   0.000000
   14  SI 1  Z   -1.574871  -1.040518   0.413852   0.000000  -1.262775
   15  SI 1  X   -4.287696   3.249001  -1.410634   0.000000  -3.004453
   16  SI 1  Y    0.000000   0.000000   0.000000   0.000001   0.000000
   17  SI 1  Z   -4.438732  -3.138439   1.362637   0.000000  -3.110278
   18  SI 1  X    2.104157  -0.762330   0.729098   0.000000   0.288227
   19  SI 1  Y    0.000000   0.000000   0.000000   0.000000   0.000000
   20  SI 1  Z    2.178275   0.736385  -0.704289   0.000000   0.298380
   21  SI 1 XX    0.006051  -0.003334  -0.006295   0.000000   0.024518
   22  SI 1 YY    0.000000   0.008591   0.015273   0.000000  -0.000000
   23  SI 1 ZZ   -0.006051  -0.005257  -0.008978   0.000000  -0.024518
   24  SI 1 XY    0.000000   0.000000   0.000000  -0.035573   0.000000
   25  SI 1 XZ    0.000242  -0.032072  -0.044749   0.000000   0.000980
   26  SI 1 YZ    0.000000   0.000000   0.000000  -0.036826   0.000000
   27  SI 1 XX    0.385901  -0.111089   0.079706   0.000000   0.063779
   28  SI 1 YY    0.000000   0.217546  -0.163698   0.000000  -0.000000
   29  SI 1 ZZ   -0.385901  -0.106457   0.083992   0.000000  -0.063779
   30  SI 1 XY    0.000000   0.000000   0.000000   0.084524   0.000000
   31  SI 1 XZ    0.015429   0.077216   0.071481   0.000000   0.002550
   32  SI 1 YZ    0.000000   0.000000   0.000000   0.087502   0.000000
   33  SI 1 XX   -1.163216   0.232758   0.101586   0.000000  -0.701373
   34  SI 1 YY   -0.000001  -0.545897  -0.311772   0.000000  -0.000000
   35  SI 1 ZZ    1.163217   0.313139   0.210186   0.000000   0.701373
   36  SI 1 XY    0.000000   0.000000   0.000000   1.033618   0.000000
   37  SI 1 XZ   -0.046504   1.340412   1.810888   0.000000  -0.028040
   38  SI 1 YZ    0.000000   0.000000   0.000000   1.070025   0.000000
   39  SI 1 XX   -3.202777   0.735142  -0.316412   0.000000  -0.505403
   40  SI 1 YY   -0.000003  -1.541576   0.529709   0.000000  -0.000000
   41  SI 1 ZZ    3.202780   0.806433  -0.213297   0.000000   0.505403
   42  SI 1 XY    0.000000   0.000000   0.000000   1.091909   0.000000
   43  SI 1 XZ   -0.128046   1.188943   1.719428   0.000000  -0.020206
   44  SI 1 YZ    0.000000   0.000000   0.000000   1.130369   0.000000
   45  SI 1 XXX  -0.063111   0.043538  -0.024944   0.000000  -0.022338
   46  SI 1 YYY   0.000000   0.000000   0.000000   0.000000   0.000000
   47  SI 1 ZZZ  -0.060535  -0.045367   0.026210   0.000000  -0.021975
   48  SI 1 XXY   0.000000   0.000000   0.000000  -0.006093   0.000000
   49  SI 1 XXZ   0.030660   0.025463  -0.017495   0.000000   0.004001
   50  SI 1 YYX   0.048835  -0.036651   0.018292   0.000000   0.024614
   51  SI 1 YYZ   0.050555   0.035404  -0.017670   0.000000   0.025481
   52  SI 1 ZZX   0.035837  -0.021761   0.015174   0.000000   0.005355
   53  SI 1 ZZY   0.000000   0.000000   0.000000   0.006093   0.000000
   54  SI 1 XYZ   0.000000   0.000000   0.000000  -0.000244   0.000000
   55  SI 1 XXX   0.267149  -0.218687  -0.267926   0.000000   0.283419
   56  SI 1 YYY   0.000000   0.000000   0.000000   0.000000   0.000000
   57  SI 1 ZZZ   0.245405   0.241083   0.298454   0.000000   0.259518
   58  SI 1 XXY   0.000000   0.000000   0.000000  -0.475736   0.000000
   59  SI 1 XXZ  -0.265037  -0.304496  -0.414352   0.000000  -0.291551
   60  SI 1 YYX  -0.062023   0.019619  -0.014424   0.000000  -0.054702
   61  SI 1 YYZ  -0.064208  -0.018951   0.013933   0.000000  -0.056629
   62  SI 1 ZZX  -0.296395   0.273780   0.373884   0.000000  -0.325544
   63  SI 1 ZZY   0.000000   0.000000   0.000000   0.475735   0.000000
   64  SI 1 XYZ   0.000000   0.000000   0.000000  -0.019020   0.000000
   65  SI 1 XXX   0.578825  -0.513597  -0.227563   0.000000  -0.145002
   66  SI 1 YYY   0.000000   0.000000   0.000000   0.000000   0.000000
   67  SI 1 ZZZ   0.538090   0.561590   0.269670   0.000000  -0.144765
   68  SI 1 XXY   0.000000   0.000000   0.000000  -0.653550   0.000000
   69  SI 1 XXZ  -0.494674  -0.653541  -0.568243   0.000000  -0.000444
   70  SI 1 YYX  -0.219517   0.103430  -0.213715   0.000000   0.188043
   71  SI 1 YYZ  -0.227250  -0.099911   0.206443   0.000000   0.194666
   72  SI 1 ZZX  -0.557059   0.585632   0.519023   0.000000   0.006498
   73  SI 1 ZZY   0.000000   0.000000   0.000000   0.653550   0.000000
   74  SI 1 XYZ   0.000000   0.000000   0.000000  -0.026129   0.000000
   75  SI 1XXXX   0.012789  -0.017418   0.017242   0.000000  -0.002761
   76  SI 1YYYY  -0.000000  -0.011176   0.008291   0.000000   0.000000
   77  SI 1ZZZZ  -0.015120  -0.017300   0.017179   0.000000  -0.001188
   78  SI 1XXXY   0.000000   0.000000   0.000000   0.012453   0.000000
   79  SI 1XXXZ   0.025781  -0.000097   0.000787   0.000000   0.043027
   80  SI 1YYYX   0.000000   0.000000   0.000000  -0.007333   0.000000
   81  SI 1YYYZ   0.000000   0.000000   0.000000  -0.007591   0.000000
   82  SI 1ZZZX  -0.025050   0.002664  -0.002170   0.000000  -0.043068
   83  SI 1ZZZY   0.000000   0.000000   0.000000   0.011960   0.000000
   84  SI 1XXYY  -0.024512   0.009919  -0.007338   0.000000   0.001382
[...]
   98  SI 1ZZZY   0.000000
   99  SI 1XXYY   0.055362
  100  SI 1XXZZ   0.253777
  101  SI 1YYZZ   0.057725
  102  SI 1XXYZ   0.000000
  103  SI 1YYXZ   0.039400
  104  SI 1ZZXY   0.000000
  105  H  2  S    1.420016
  106  H  2  S    0.067028
  107  H  2  S   -1.502702
  108  H  2  S   -4.409589
  109  H  2  S   -0.109579
  110  H  2  X    0.033270
  111  H  2  Y    0.000000
  112  H  2  Z    0.803439
  113  H  2  X   -0.011261
  114  H  2  Y    0.000000
  115  H  2  Z    2.773858
  116  H  2  X   -0.059826
  117  H  2  Y    0.000000
  118  H  2  Z    0.659213
  119  H  2  X    0.039658
  120  H  2  Y    0.000000
  121  H  2  Z   -0.437630
  122  H  2 XX    0.324933
  123  H  2 YY    0.409780
  124  H  2 ZZ   -0.734713
  125  H  2 XY    0.000000
  126  H  2 XZ    0.040258
  127  H  2 YZ    0.000000
  128  H  2 XX    0.598105
  129  H  2 YY    0.577194
  130  H  2 ZZ   -1.175299
  131  H  2 XY    0.000000
  132  H  2 XZ    0.116630
  133  H  2 YZ    0.000000
  134  H  2 XX   -0.183463
  135  H  2 YY   -0.176633
  136  H  2 ZZ    0.360096
  137  H  2 XY    0.000000
  138  H  2 XZ   -0.040672
  139  H  2 YZ    0.000000
  140  H  2 XXX   0.038350
  141  H  2 YYY   0.000000
  142  H  2 ZZZ   0.357372
  143  H  2 XXY   0.000000
  144  H  2 XXZ  -0.228163
  145  H  2 YYX   0.027667
  146  H  2 YYZ  -0.251302
  147  H  2 ZZX  -0.079119
  148  H  2 ZZY   0.000000
  149  H  2 XYZ   0.000000
  150  H  2 XXX   0.008706
  151  H  2 YYY   0.000000
  152  H  2 ZZZ   0.225936
  153  H  2 XXY   0.000000
  154  H  2 XXZ  -0.165554
  155  H  2 YYX   0.001857
  156  H  2 YYZ  -0.137571
  157  H  2 ZZX  -0.013538
  158  H  2 ZZY   0.000000
  159  H  2 XYZ   0.000000
  160  H  3  S    1.420022
  161  H  3  S    0.067028
  162  H  3  S   -1.502712
  163  H  3  S   -4.409604
  164  H  3  S   -0.109582
  165  H  3  X   -0.801809
  166  H  3  Y    0.000000
  167  H  3  Z   -0.061051
  168  H  3  X   -2.772593
  169  H  3  Y    0.000000
  170  H  3  Z   -0.084731
  171  H  3  X   -0.660891
  172  H  3  Y    0.000000
  173  H  3  Z    0.036979
  174  H  3  X    0.438741
  175  H  3  Y    0.000000
  176  H  3  Z   -0.024490
  177  H  3 XX   -0.735857
  178  H  3 YY    0.409781
  179  H  3 ZZ    0.326076
  180  H  3 XY    0.000000
  181  H  3 XZ   -0.002153
  182  H  3 YZ    0.000000
  183  H  3 XX   -1.180164
  184  H  3 YY    0.577195
  185  H  3 ZZ    0.602968
  186  H  3 XY    0.000000
  187  H  3 XZ    0.045534
  188  H  3 YZ    0.000000
  189  H  3 XX    0.361882
  190  H  3 YY   -0.176633
  191  H  3 ZZ   -0.185249
  192  H  3 XY    0.000000
  193  H  3 XZ   -0.018869
  194  H  3 YZ    0.000000
  195  H  3 XXX  -0.362233
  196  H  3 YYY   0.000000
  197  H  3 ZZZ  -0.020451
  198  H  3 XXY   0.000000
  199  H  3 XXZ   0.046392
  200  H  3 YYX   0.252109
  201  H  3 YYZ  -0.018954
  202  H  3 ZZX   0.233877
  203  H  3 ZZY   0.000000
  204  H  3 XYZ   0.000000
  205  H  3 XXX  -0.226133
  206  H  3 YYY   0.000000
  207  H  3 ZZZ   0.004131
  208  H  3 XXY   0.000000
  209  H  3 XXZ  -0.008446
  210  H  3 YYX   0.137553
  211  H  3 YYZ   0.002904
  212  H  3 ZZX   0.165837
  213  H  3 ZZY   0.000000
  214  H  3 XYZ   0.000000
 ...... END OF ROHF CALCULATION ......
 STEP CPU TIME =    17.61 TOTAL CPU TIME =       28.0 (    0.5 MIN)
 TOTAL WALL CLOCK TIME=       53.9 SECONDS, CPU UTILIZATION IS  51.94%

     ----------------------------------------------------------------
     PROPERTY VALUES FOR THE ROHF  SELF-CONSISTENT FIELD WAVEFUNCTION
     ----------------------------------------------------------------

          -----------------
          ENERGY COMPONENTS
          -----------------

         WAVEFUNCTION NORMALIZATION =       1.0000000000

                ONE ELECTRON ENERGY =     -12.8323890201
                TWO ELECTRON ENERGY =       4.9402953799
           NUCLEAR REPULSION ENERGY =       3.0391227157
                                      ------------------
                       TOTAL ENERGY =      -4.8529709244

 ELECTRON-ELECTRON POTENTIAL ENERGY =       4.9402953799
  NUCLEUS-ELECTRON POTENTIAL ENERGY =     -15.3837556378
   NUCLEUS-NUCLEUS POTENTIAL ENERGY =       3.0391227157
                                      ------------------
             TOTAL POTENTIAL ENERGY =      -7.4043375421
               TOTAL KINETIC ENERGY =       2.5513666177
                 VIRIAL RATIO (V/T) =       2.9021064596

          ---------------------------------------
          MULLIKEN AND LOWDIN POPULATION ANALYSES
          ---------------------------------------

     ATOMIC MULLIKEN POPULATION IN EACH MOLECULAR ORBITAL

                      1          2          3

                  2.000000   2.000000   2.000000

    1             1.268611   0.791500   1.700000
    2             0.365694   0.604250   0.150000
    3             0.365695   0.604250   0.150000

          MULLIKEN SPHERICAL HARMONIC POPULATIONS
       ATOM           S       P       D      F      G      H      I    TOTAL
    1 SI            0.84    0.97    0.07   0.01   0.00   0.00   0.00    1.88
    2 H             0.54    0.02    0.00   0.00   0.00   0.00   0.00    0.56
    3 H             0.54    0.02    0.00   0.00   0.00   0.00   0.00    0.56

          MULLIKEN SPHERICAL HARMONIC POPULATIONS
       ATOM           S       P       D      F      G      H      I    TOTAL
    1 SI            0.84    0.97    0.07   0.01   0.00   0.00   0.00    1.88
    2 H             0.54    0.02    0.00   0.00   0.00   0.00   0.00    0.56
    3 H             0.54    0.02    0.00   0.00   0.00   0.00   0.00    0.56

     ATOMIC SPIN POPULATION (ALPHA MINUS BETA)
       ATOM         MULL.POP.                    LOW.POP.
    1 SI            0.000000                     0.000000
    2 H             0.000000                     0.000000
    3 H             0.000000                     0.000000

               ----- POPULATIONS IN EACH AO -----
                             MULLIKEN      LOWDIN
              1  SI 1  S      1.79608     0.16642
              2  SI 1  S     -0.00394     0.03785
              3  SI 1  S     -0.05327     0.11180
              4  SI 1  S     -0.07261     0.10276
              5  SI 1  S      0.00981     0.05092
              6  SI 1  X      0.85165     0.16477
              7  SI 1  Y      0.00000     0.00000
              8  SI 1  Z      0.82791     0.16229
              9  SI 1  X     -0.00930     0.01386
             10  SI 1  Y      0.00000     0.00000
             11  SI 1  Z     -0.00953     0.01366
             12  SI 1  X      0.06399     0.07779
             13  SI 1  Y      0.00000     0.00000
             14  SI 1  Z      0.06566     0.07671
             15  SI 1  X      0.07077     0.15661
             16  SI 1  Y      0.00000     0.00000
             17  SI 1  Z      0.07372     0.15463
             18  SI 1  X     -0.00176     0.02402
             19  SI 1  Y      0.00000     0.00000
             20  SI 1  Z     -0.00162     0.02340
             21  SI 1 XX      0.00833     0.04992
             22  SI 1 YY      0.00449     0.04994
             23  SI 1 ZZ      0.00000     0.04982
             24  SI 1 XY      0.00001     0.00000
             25  SI 1 XZ      0.00000     0.00012
             26  SI 1 YZ      0.00000     0.00000
             27  SI 1 XX      0.03581     0.10226
             28  SI 1 YY      0.02055     0.09394
             29  SI 1 ZZ      0.00000     0.10199
             30  SI 1 XY      0.00010     0.00000
             31  SI 1 XZ      0.00000     0.00075
             32  SI 1 YZ      0.00000     0.00000
             33  SI 1 XX      0.03345     0.05469
             34  SI 1 YY      0.02465     0.03712
             35  SI 1 ZZ      0.00000     0.05453
             36  SI 1 XY      0.00010     0.00000
             37  SI 1 XZ      0.00000     0.00124
             38  SI 1 YZ      0.00000     0.00000
             39  SI 1 XX      0.00747     0.00736
             40  SI 1 YY      0.00455     0.00494
             41  SI 1 ZZ      0.00000     0.00733
             42  SI 1 XY      0.00002     0.00000
             43  SI 1 XZ      0.00000     0.00053
             44  SI 1 YZ      0.00000     0.00000
             45  SI 1 XXX     0.00111     0.11579
             46  SI 1 YYY     0.00003     0.00000
             47  SI 1 ZZZ     0.00109     0.11458
             48  SI 1 XXY     0.00219     0.00000
             49  SI 1 XXZ     0.00000     0.03065
             50  SI 1 YYX     0.00000     0.03787
             51  SI 1 YYZ     0.00000     0.03720
             52  SI 1 ZZX     0.00000     0.03122
             53  SI 1 ZZY     0.00000     0.00000
             54  SI 1 XYZ     0.00000     0.00000
             55  SI 1 XXX     0.00055     0.16936
             56  SI 1 YYY     0.00010     0.00000
             57  SI 1 ZZZ     0.00161     0.16772
             58  SI 1 XXY     0.00244     0.00000
             59  SI 1 XXZ     0.00000     0.03362
             60  SI 1 YYX     0.00000     0.04507
             61  SI 1 YYZ     0.00000     0.04401
             62  SI 1 ZZX     0.00000     0.03433
             63  SI 1 ZZY     0.00000     0.00000
             64  SI 1 XYZ     0.00000     0.00000
             65  SI 1 XXX     0.00066     0.05884
             66  SI 1 YYY     0.00003     0.00000
             67  SI 1 ZZZ     0.00058     0.05783
             68  SI 1 XXY     0.00127     0.00000
             69  SI 1 XXZ     0.00000     0.01222
             70  SI 1 YYX     0.00000     0.01654
             71  SI 1 YYZ     0.00000     0.01598
             72  SI 1 ZZX     0.00000     0.01274
             73  SI 1 ZZY     0.00000     0.00000
             74  SI 1 XYZ     0.00000     0.00000
             75  SI 1XXXX     0.00017     0.06817
             76  SI 1YYYY     0.00000     0.04591
             77  SI 1ZZZZ     0.00020     0.06801
             78  SI 1XXXY    -0.00001     0.00000
             79  SI 1XXXZ     0.00061     0.00079
             80  SI 1YYYX     0.00000     0.00000
             81  SI 1YYYZ     0.00000     0.00000
             82  SI 1ZZZX     0.00000     0.00067
             83  SI 1ZZZY     0.00000     0.00000
             84  SI 1XXYY     0.00000     0.04766
             85  SI 1XXZZ     0.00000     0.04415
             86  SI 1YYZZ     0.00000     0.04751
             87  SI 1XXYZ     0.00000     0.00000
             88  SI 1YYXZ     0.00000     0.00019
             89  SI 1ZZXY     0.00000     0.00000
             90  SI 1XXXX    -0.00006     0.04618
             91  SI 1YYYY     0.00001     0.01914
             92  SI 1ZZZZ     0.00008     0.04613
             93  SI 1XXXY     0.00002     0.00000
             94  SI 1XXXZ     0.00036     0.00098
             95  SI 1YYYX     0.00000     0.00000
             96  SI 1YYYZ     0.00000     0.00000
             97  SI 1ZZZX     0.00000     0.00079
             98  SI 1ZZZY     0.00000     0.00000
             99  SI 1XXYY     0.00000     0.01800
            100  SI 1XXZZ     0.00000     0.01531
            101  SI 1YYZZ     0.00000     0.01788
            102  SI 1XXYZ     0.00000     0.00000
            103  SI 1YYXZ     0.00000     0.00026
            104  SI 1ZZXY     0.00000     0.00000
            105  H  2  S      1.44554     0.20661
            106  H  2  S     -0.00958     0.02335
            107  H  2  S     -0.17462     0.07338
            108  H  2  S     -0.12971     0.15840
            109  H  2  S     -0.04815     0.18646
            110  H  2  X      0.00022     0.03958
            111  H  2  Y      0.00000     0.00000
            112  H  2  Z      0.00552     0.05726
            113  H  2  X      0.00538     0.00963
            114  H  2  Y      0.00000     0.00000
            115  H  2  Z      0.01613     0.01498
            116  H  2  X      0.00085     0.00059
            117  H  2  Y      0.00000     0.00000
            118  H  2  Z      0.00480     0.00446
            119  H  2  X      0.00004     0.00008
            120  H  2  Y      0.00000     0.00000
            121  H  2  Z      0.00037     0.00056
            122  H  2 XX      0.00088     0.02282
            123  H  2 YY      0.00014     0.02662
            124  H  2 ZZ      0.00000     0.04727
            125  H  2 XY      0.00058     0.00000
            126  H  2 XZ      0.00000     0.03527
            127  H  2 YZ      0.00000     0.00000
            128  H  2 XX      0.00062     0.04510
            129  H  2 YY      0.00003     0.04832
            130  H  2 ZZ      0.00000     0.06762
            131  H  2 XY      0.00057     0.00000
            132  H  2 XZ      0.00000     0.00173
            133  H  2 YZ      0.00000     0.00000
            134  H  2 XX      0.00005     0.04413
            135  H  2 YY      0.00000     0.04441
            136  H  2 ZZ      0.00000     0.05010
            137  H  2 XY      0.00001     0.00000
            138  H  2 XZ      0.00000     0.00002
            139  H  2 YZ      0.00000     0.00000
            140  H  2 XXX    -0.00000     0.00542
            141  H  2 YYY     0.00007     0.00000
            142  H  2 ZZZ     0.00018     0.01418
            143  H  2 XXY     0.00001     0.00000
            144  H  2 XXZ     0.00000     0.00495
            145  H  2 YYX     0.00000     0.00206
            146  H  2 YYZ     0.00000     0.00459
            147  H  2 ZZX     0.00000     0.01465
            148  H  2 ZZY     0.00000     0.00000
            149  H  2 XYZ     0.00000     0.00000
            150  H  2 XXX     0.00000     0.00038
            151  H  2 YYY     0.00000     0.00000
            152  H  2 ZZZ     0.00001     0.00444
            153  H  2 XXY     0.00001     0.00000
            154  H  2 XXZ     0.00000     0.00107
            155  H  2 YYX     0.00000     0.00017
            156  H  2 YYZ     0.00000     0.00114
            157  H  2 ZZX     0.00000     0.00034
            158  H  2 ZZY     0.00000     0.00000
            159  H  2 XYZ     0.00000     0.00000
            160  H  3  S      1.44554     0.20648
            161  H  3  S     -0.00958     0.02334
            162  H  3  S     -0.17462     0.07335
            163  H  3  S     -0.12971     0.15829
            164  H  3  S     -0.04815     0.18633
            165  H  3  X      0.00577     0.05795
            166  H  3  Y      0.00000     0.00000
            167  H  3  Z     -0.00004     0.03879
            168  H  3  X      0.01630     0.01522
            169  H  3  Y      0.00000     0.00000
            170  H  3  Z      0.00521     0.00938
            171  H  3  X      0.00482     0.00447
            172  H  3  Y      0.00000     0.00000
            173  H  3  Z      0.00084     0.00057
            174  H  3  X      0.00037     0.00056
            175  H  3  Y      0.00000     0.00000
            176  H  3  Z      0.00004     0.00008
            177  H  3 XX      0.00009     0.04792
            178  H  3 YY      0.00090     0.02659
            179  H  3 ZZ      0.00000     0.02311
            180  H  3 XY      0.00060     0.00000
            181  H  3 XZ      0.00000     0.03384
            182  H  3 YZ      0.00000     0.00000
            183  H  3 XX      0.00023     0.06767
            184  H  3 YY      0.00044     0.04826
            185  H  3 ZZ      0.00000     0.04504
            186  H  3 XY      0.00056     0.00000
            187  H  3 XZ      0.00000     0.00162
            188  H  3 YZ      0.00000     0.00000
            189  H  3 XX      0.00001     0.05006
            190  H  3 YY      0.00003     0.04438
            191  H  3 ZZ      0.00000     0.04411
            192  H  3 XY      0.00001     0.00000
            193  H  3 XZ      0.00000     0.00002
            194  H  3 YZ      0.00000     0.00000
            195  H  3 XXX     0.00009     0.01459
            196  H  3 YYY     0.00013     0.00000
            197  H  3 ZZZ    -0.00002     0.00539
            198  H  3 XXY     0.00006     0.00000
            199  H  3 XXZ     0.00000     0.01394
            200  H  3 YYX     0.00000     0.00468
            201  H  3 YYZ     0.00000     0.00197
            202  H  3 ZZX     0.00000     0.00501
            203  H  3 ZZY     0.00000     0.00000
            204  H  3 XYZ     0.00000     0.00000
            205  H  3 XXX     0.00001     0.00444
            206  H  3 YYY     0.00001     0.00000
            207  H  3 ZZZ     0.00001     0.00037
            208  H  3 XXY     0.00000     0.00000
            209  H  3 XXZ     0.00000     0.00032
            210  H  3 YYX     0.00000     0.00114
            211  H  3 YYZ     0.00000     0.00016
            212  H  3 ZZX     0.00000     0.00107
            213  H  3 ZZY     0.00000     0.00000
            214  H  3 XYZ     0.00000     0.00000

          ----- MULLIKEN ATOMIC OVERLAP POPULATIONS -----
          (OFF-DIAGONAL ELEMENTS NEED TO BE MULTIPLIED BY 2)

             1           2           3

    1    2.9560110
    2    0.4020497   0.7527214
    3    0.4020503  -0.0348270   0.7527219

          TOTAL MULLIKEN AND LOWDIN ATOMIC POPULATIONS
       ATOM         MULL.POP.    CHARGE          LOW.POP.     CHARGE
    1 SI            3.760111    0.239889         3.477308    0.522692
    2 H             1.119944   -0.119944         1.262158   -0.262158
    3 H             1.119945   -0.119945         1.260535   -0.260535

          MULLIKEN SPHERICAL HARMONIC POPULATIONS
       ATOM           S       P       D      F      G      H      I    TOTAL
    1 SI            1.68    1.93    0.14   0.01   0.00   0.00   0.00    3.76
    2 H             1.08    0.03    0.00   0.00   0.00   0.00   0.00    1.12
    3 H             1.08    0.03    0.00   0.00   0.00   0.00   0.00    1.12

          -------------------------------
          BOND ORDER AND VALENCE ANALYSIS     BOND ORDER THRESHOLD=0.050
          -------------------------------

                   BOND                       BOND                       BOND
  ATOM PAIR DIST  ORDER      ATOM PAIR DIST  ORDER      ATOM PAIR DIST  ORDER
    1   2  1.514  0.990        1   3  1.514  0.990

                       TOTAL       BONDED        FREE
      ATOM            VALENCE     VALENCE     VALENCE
    1 SI                1.981       1.981      -0.000
    2 H                 0.995       0.995      -0.000
    3 H                 0.995       0.995       0.000

          -----------------------------------------
          ATOMIC SPIN DENSITY AT THE NUCLEUS (A.U.)
          -----------------------------------------
                            SPIN DENS    ALPHA DENS     BETA DENS
    1  SI           4.0     0.0000000       0.00017       0.00017
    2  H            1.0     0.0000000       0.18009       0.18009
    3  H            1.0     0.0000000       0.18009       0.18009

          ---------------------
          ELECTROSTATIC MOMENTS
          ---------------------

 POINT   1           X           Y           Z (BOHR)    CHARGE
                -0.096082    0.000000    0.092813        0.00 (A.U.)
         DX          DY          DZ         /D/  (DEBYE)
    -0.211742    0.000000    0.204537    0.294397
 ...... END OF PROPERTY EVALUATION ......
 STEP CPU TIME =     0.56 TOTAL CPU TIME =       28.5 (    0.5 MIN)
 TOTAL WALL CLOCK TIME=       54.5 SECONDS, CPU UTILIZATION IS  52.39%
                828713  WORDS OF DYNAMIC MEMORY USED
 EXECUTION OF GAMESS TERMINATED NORMALLY Sun May 10 10:35:09 2020
 DDI: 263624 bytes (0.3 MB / 0 MWords) used by master data server.

 ----------------------------------------
 CPU timing information for all processes
 ========================================
 0: 24.925 + 3.622 = 28.548
 ----------------------------------------
 ddikick.x: exited gracefully.
----- accounting info -----
Files used on the master node cori04 were:
-rw-rw---- 1 aannabe aannabe       3952 May 10 10:34 /global/cscratch1/sd/aannabe/scf.F05
-rw-rw---- 1 aannabe aannabe 1328158048 May 10 10:34 /global/cscratch1/sd/aannabe/scf.F08
-rw-rw---- 1 aannabe aannabe   11844640 May 10 10:35 /global/cscratch1/sd/aannabe/scf.F10
Sun May 10 10:35:14 PDT 2020
0.426u 0.536s 1:00.92 1.5%	0+0k 0+8io 0pf+0w
