  Input file(s): qmc.qmc.in-wfj.xml 

=====================================================
                    QMCPACK 3.9.9

       (c) Copyright 2003-  QMCPACK developers

                    Please cite:
 J. Kim et al. J. Phys. Cond. Mat. 30 195901 (2018)
      https://doi.org/10.1088/1361-648X/aab9c3

  Git branch: develop
  Last git commit: 51afccc38c709a720e0a3b2699c25cdc16ac35ad
  Last git commit date: Thu Jun 11 17:49:55 2020 -0400
  Last git commit subject: Merge pull request #2531 from mmorale3/add_afqmc_hip
=====================================================
  Global options 

  Total number of MPI ranks = 8
  Number of MPI groups      = 1
  MPI group ID              = 0
  Number of ranks in group  = 8
  MPI ranks per node        = 2
  OMP 1st level threads     = 21
  OMP nested threading disabled or only 1 thread on the 2nd level

  Precision used in this calculation, see definitions in the manual:
  Base precision      = double
  Full precision      = double

  Structure-of-arrays (SoA) optimization enabled

  Input XML = qmc.qmc.in-wfj.xml

  Project = qmc
  date    = 2020-07-12 20:25:19 EDT
  host    = a02n18

 Random Number
 -------------
  Offset for the random number seeds based on time: 495

  Range of prime numbers to use as seeds over processors and threads = 3547-4969


 Particle Set 
 ------------
  Name: ion0
  All the species have the same mass 1
  Particle set size: 5

 Particle Set 
 ------------
  Name: e
  All the species have the same mass 1
  Particle set size: 8

 Wavefunction setup: 
 ------------------- 
  Name: psi0
  LCAO: SoaAtomicBasisSet<MultiQuintic,1>
Reading BasisSet from HDF5 file:qmc.h5
<input node="atomicBasisSet" name="gaussian" expandYlm="pyscf" angular="spherical" elementType="Si" normalized="no" type="Numerical" expM="0" />
  AO BasisSet for Si
   Spherical Harmonics contain (-1)^m factor
   Angular momentum m expanded as -l, ... ,l, with the exception of L=1 (1,-1,0)
   Grid is created by the input paremters in h5
    Using log grid ri = 1e-06 rf = 100 npts = 1001
   R(n,l,m,s) 0 0 0 0
   R(n,l,m,s) 1 0 0 0
   R(n,l,m,s) 2 0 0 0
   R(n,l,m,s) 3 0 0 0
   R(n,l,m,s) 4 0 0 0
   R(n,l,m,s) 5 1 0 0
   R(n,l,m,s) 6 1 0 0
   R(n,l,m,s) 7 1 0 0
   R(n,l,m,s) 8 1 0 0
   R(n,l,m,s) 9 1 0 0
   R(n,l,m,s) 10 2 0 0
   R(n,l,m,s) 11 2 0 0
   R(n,l,m,s) 12 2 0 0
   R(n,l,m,s) 13 2 0 0
   R(n,l,m,s) 14 3 0 0
   R(n,l,m,s) 15 3 0 0
   R(n,l,m,s) 16 3 0 0
   R(n,l,m,s) 17 4 0 0
   R(n,l,m,s) 18 4 0 0
Expanding Ylm as L=1 as (1,-1,0) and L>1 as -l,-l+1,...,l-1,l
   Adding 1 spherical orbitals
   Adding 1 spherical orbitals
   Adding 1 spherical orbitals
   Adding 1 spherical orbitals
   Adding 1 spherical orbitals
   Adding 3 spherical orbitals
   Adding 3 spherical orbitals
   Adding 3 spherical orbitals
   Adding 3 spherical orbitals
   Adding 3 spherical orbitals
   Adding 5 spherical orbitals
   Adding 5 spherical orbitals
   Adding 5 spherical orbitals
   Adding 5 spherical orbitals
   Adding 7 spherical orbitals
   Adding 7 spherical orbitals
   Adding 7 spherical orbitals
   Adding 9 spherical orbitals
   Adding 9 spherical orbitals
  Setting cutoff radius 8.64717e+15

   Maximum Angular Momentum  = 4
   Number of Radial functors = 19
   Basis size                = 79

<input node="atomicBasisSet" name="gaussian" expandYlm="pyscf" angular="spherical" elementType="H" normalized="no" type="Numerical" expM="0" />
  AO BasisSet for H
   Spherical Harmonics contain (-1)^m factor
   Angular momentum m expanded as -l, ... ,l, with the exception of L=1 (1,-1,0)
   Grid is created by the input paremters in h5
    Using log grid ri = 1e-06 rf = 100 npts = 1001
   R(n,l,m,s) 0 0 0 0
   R(n,l,m,s) 1 0 0 0
   R(n,l,m,s) 2 0 0 0
   R(n,l,m,s) 3 0 0 0
   R(n,l,m,s) 4 0 0 0
   R(n,l,m,s) 5 1 0 0
   R(n,l,m,s) 6 1 0 0
   R(n,l,m,s) 7 1 0 0
   R(n,l,m,s) 8 1 0 0
   R(n,l,m,s) 9 2 0 0
   R(n,l,m,s) 10 2 0 0
   R(n,l,m,s) 11 2 0 0
   R(n,l,m,s) 12 3 0 0
   R(n,l,m,s) 13 3 0 0
Expanding Ylm as L=1 as (1,-1,0) and L>1 as -l,-l+1,...,l-1,l
   Adding 1 spherical orbitals
   Adding 1 spherical orbitals
   Adding 1 spherical orbitals
   Adding 1 spherical orbitals
   Adding 1 spherical orbitals
   Adding 3 spherical orbitals
   Adding 3 spherical orbitals
   Adding 3 spherical orbitals
   Adding 3 spherical orbitals
   Adding 5 spherical orbitals
   Adding 5 spherical orbitals
   Adding 5 spherical orbitals
   Adding 7 spherical orbitals
   Adding 7 spherical orbitals
  Setting cutoff radius 9.95675e+11

   Maximum Angular Momentum  = 3
   Number of Radial functors = 14
   Basis size                = 46

  Created SPOSet builder named 'LCAOBSet' of type molecularorbital
Reuse SPOSetBuilder "LCAOBSet" type MolecularOrbital
  Building SPOSet '' with '' basis set.
Reuse SPOSetBuilder "LCAOBSet" type MolecularOrbital
  Building SPOSet '' with '' basis set.
  Creating a determinant updet group=0 sposet=updet
  Reusing a SPO set updet
  Setting delay_rank by default!
  Using rank-1 Sherman-Morrison Fahy update
  Using DiracDeterminant with DelayedUpdate engine

  Creating a determinant downdet group=1 sposet=downdet
  Reusing a SPO set downdet
  Setting delay_rank by default!
  Using rank-1 Sherman-Morrison Fahy update
  Using DiracDeterminant with DelayedUpdate engine

  Added a fermionic WaveFunctionComponent SlaterDet

   Jastrow
   -------
    Name: J2   Type: Two-Body   Function: Bspline

    Radial function for species: u - u
     Number of parameters: 10
     Cusp: -0.25
     Cutoff radius: 10

     Name                        Value Type Recompute Use Index
     ---- ---------------------------- ---- --------- --- -----
     uu_0                 0.000000e+00    1         1  ON     0
     uu_1                 0.000000e+00    1         1  ON     1
     uu_2                 0.000000e+00    1         1  ON     2
     uu_3                 0.000000e+00    1         1  ON     3
     uu_4                 0.000000e+00    1         1  ON     4
     uu_5                 0.000000e+00    1         1  ON     5
     uu_6                 0.000000e+00    1         1  ON     6
     uu_7                 0.000000e+00    1         1  ON     7
     uu_8                 0.000000e+00    1         1  ON     8
     uu_9                 0.000000e+00    1         1  ON     9

    Radial function for species: u - d
     Number of parameters: 10
     Cusp: -0.5
     Cutoff radius: 10

     Name                        Value Type Recompute Use Index
     ---- ---------------------------- ---- --------- --- -----
     ud_0                 0.000000e+00    1         1  ON     0
     ud_1                 0.000000e+00    1         1  ON     1
     ud_2                 0.000000e+00    1         1  ON     2
     ud_3                 0.000000e+00    1         1  ON     3
     ud_4                 0.000000e+00    1         1  ON     4
     ud_5                 0.000000e+00    1         1  ON     5
     ud_6                 0.000000e+00    1         1  ON     6
     ud_7                 0.000000e+00    1         1  ON     7
     ud_8                 0.000000e+00    1         1  ON     8
     ud_9                 0.000000e+00    1         1  ON     9


   Jastrow
   -------
    Name: J1   Type: One-Body   Function: Bspline

    Radial function for element: Si
     Number of parameters: 10
     Cusp: 0
     Cutoff radius: 10

      Name                        Value Type Recompute Use Index
     ----- ---------------------------- ---- --------- --- -----
     eSi_0                 0.000000e+00    1         1  ON     0
     eSi_1                 0.000000e+00    1         1  ON     1
     eSi_2                 0.000000e+00    1         1  ON     2
     eSi_3                 0.000000e+00    1         1  ON     3
     eSi_4                 0.000000e+00    1         1  ON     4
     eSi_5                 0.000000e+00    1         1  ON     5
     eSi_6                 0.000000e+00    1         1  ON     6
     eSi_7                 0.000000e+00    1         1  ON     7
     eSi_8                 0.000000e+00    1         1  ON     8
     eSi_9                 0.000000e+00    1         1  ON     9

    Radial function for element: H
     Number of parameters: 10
     Cusp: 0
     Cutoff radius: 10

     Name                        Value Type Recompute Use Index
     ---- ---------------------------- ---- --------- --- -----
     eH_0                 0.000000e+00    1         1  ON     0
     eH_1                 0.000000e+00    1         1  ON     1
     eH_2                 0.000000e+00    1         1  ON     2
     eH_3                 0.000000e+00    1         1  ON     3
     eH_4                 0.000000e+00    1         1  ON     4
     eH_5                 0.000000e+00    1         1  ON     5
     eH_6                 0.000000e+00    1         1  ON     6
     eH_7                 0.000000e+00    1         1  ON     7
     eH_8                 0.000000e+00    1         1  ON     8
     eH_9                 0.000000e+00    1         1  ON     9


   Jastrow
   -------
    Name: J3   Type: eeI   Function: polynomial

     Ion: Si   electron-electron: u - u
      Number of parameters for e-e: 3, for e-I: 3
      Cutoff radius: 10

Expected 26 parameters, but found 0 in PolynomialFunctor3D.
     Ion: Si   electron-electron: u - d
      Number of parameters for e-e: 3, for e-I: 3
      Cutoff radius: 10

Expected 26 parameters, but found 0 in PolynomialFunctor3D.
     Ion: H   electron-electron: u - u
      Number of parameters for e-e: 3, for e-I: 3
      Cutoff radius: 10

Expected 26 parameters, but found 0 in PolynomialFunctor3D.
     Ion: H   electron-electron: u - d
      Number of parameters for e-e: 3, for e-I: 3
      Cutoff radius: 10

Expected 26 parameters, but found 0 in PolynomialFunctor3D.
  QMCHamiltonian::addOperator Kinetic to H, physical Hamiltonian 
  QMCHamiltonian::addOperator ElecElec to H, physical Hamiltonian 
QMCHamiltonian::addOperatorType added type coulomb named ElecElec
  QMCHamiltonian::addOperator IonIon to H, physical Hamiltonian 
QMCHamiltonian::addOperatorType added type coulomb named IonIon

  ECPotential builder for pseudopotential 

  Adding pseudopotential for H
   Linear grid  ri=0 rf=10 npts = 10001
    ECPComponentBuilder::buildSemiLocalAndLocal 
    Assuming Hartree unit
   Number of angular momentum channels 2
   Maximum angular momentum channel 1
   Creating a Linear Grid Rmax=1e-10
  Using global grid with delta = 0.001
   Making L=1 a local potential with a radial cutoff of 9.999
    Non-local pseudopotential parameters
    Maximum angular mementum = 0
    Number of non-local channels = 1
       l(0)=0
    Cutoff radius = 0.001
    Spherical grids and weights: 
                        1                 0                 0       0.08333333333
                       -1   1.224646799e-16                 0       0.08333333333
             0.4472135955       0.894427191                 0       0.08333333333
            -0.4472135955      0.7236067977      0.5257311121       0.08333333333
             0.4472135955      0.2763932023      0.8506508084       0.08333333333
            -0.4472135955     -0.2763932023      0.8506508084       0.08333333333
             0.4472135955     -0.7236067977      0.5257311121       0.08333333333
            -0.4472135955      -0.894427191   1.095357397e-16       0.08333333333
             0.4472135955     -0.7236067977     -0.5257311121       0.08333333333
            -0.4472135955     -0.2763932023     -0.8506508084       0.08333333333
             0.4472135955      0.2763932023     -0.8506508084       0.08333333333
            -0.4472135955      0.7236067977     -0.5257311121       0.08333333333
    Maximum cutoff radius 0.001

  Adding pseudopotential for Si
   Linear grid  ri=0 rf=10 npts = 10001
    ECPComponentBuilder::buildSemiLocalAndLocal 
    Assuming Hartree unit
   Number of angular momentum channels 3
   Maximum angular momentum channel 2
   Creating a Linear Grid Rmax=2.69
  Using global grid with delta = 0.001
   Making L=2 a local potential with a radial cutoff of 9.999
    Non-local pseudopotential parameters
    Maximum angular mementum = 1
    Number of non-local channels = 2
       l(0)=0
       l(1)=1
    Cutoff radius = 2.69
    Spherical grids and weights: 
                        1                 0                 0       0.08333333333
                       -1   1.224646799e-16                 0       0.08333333333
             0.4472135955       0.894427191                 0       0.08333333333
            -0.4472135955      0.7236067977      0.5257311121       0.08333333333
             0.4472135955      0.2763932023      0.8506508084       0.08333333333
            -0.4472135955     -0.2763932023      0.8506508084       0.08333333333
             0.4472135955     -0.7236067977      0.5257311121       0.08333333333
            -0.4472135955      -0.894427191   1.095357397e-16       0.08333333333
             0.4472135955     -0.7236067977     -0.5257311121       0.08333333333
            -0.4472135955     -0.2763932023     -0.8506508084       0.08333333333
             0.4472135955      0.2763932023     -0.8506508084       0.08333333333
            -0.4472135955      0.7236067977     -0.5257311121       0.08333333333
    Maximum cutoff radius 2.69
  QMCHamiltonian::addOperator LocalECP to H, physical Hamiltonian 

  Using NonLocalECP potential 
    Maximum grid on a sphere for NonLocalECPotential: 12
  QMCHamiltonian::addOperator NonLocalECP to H, physical Hamiltonian 
QMCHamiltonian::addOperatorType added type pseudo named PseudoPot

  QMCHamiltonian::add2WalkerProperty added
    5 to P::PropertyList 
    0 to P::Collectables 
    starting Index of the observables in P::PropertyList = 9
ParticleSetPool::randomize 1 ParticleSet.
<init source="ion0" target="e">
</init>
  Initialization Execution time = 0.4307 secs
=========================================================
 Summary of QMC systems 
=========================================================
ParticleSetPool has: 

  ParticleSet 'e' contains 8 particles :  u(4) d(4)

    u  2.1100034220e-01  6.1887698889e-01  9.0761784145e-01
    u -9.7487650870e-01  5.6143893581e-02  5.4567726168e-01
    u  2.5466290477e+00  1.9472647472e+00  1.0931316095e+00
    u -1.2377340669e+00  5.6856663209e-01 -1.7376165529e+00
    d -9.9801482314e-01  3.9862820531e-01  3.1042226825e-01
    d  8.9089994523e-01  6.1694646888e-01  2.7744253464e-01
    d -1.7257261586e+00 -1.0094341248e+00  2.5487891739e+00
    d  1.5960615553e+00 -1.0806259304e+00 -2.5973576242e+00

  Distance table for dissimilar particles (A-B):
    source: ion0  target: e
    Using structure-of-arrays (SoA) data layout
    Distance computations use open boundary conditions in 3D.

  Distance table for similar particles (A-A):
    source/target: e
    Using structure-of-arrays (SoA) data layout
    Distance computations use open boundary conditions in 3D.


  ParticleSet 'ion0' contains 5 particles :  Si(1) H(4)

    Si  0.0000000000e+00  0.0000000000e+00  0.0000000000e+00
    H  1.6145820008e+00  1.6145820008e+00  1.6145820008e+00
    H -1.6145820008e+00 -1.6145820008e+00  1.6145820008e+00
    H -1.6145820008e+00  1.6145820008e+00 -1.6145820008e+00
    H  1.6145820008e+00 -1.6145820008e+00 -1.6145820008e+00

  Distance table for similar particles (A-A):
    source/target: ion0
    Using structure-of-arrays (SoA) data layout
    Distance computations use open boundary conditions in 3D.


  Hamiltonian h0
  Kinetic         Kinetic energy
  ElecElec        CoulombAB source=e

  IonIon          CoulombAA source/target ion0

  LocalECP        LocalECPotential: ion0
  NonLocalECP     NonLocalECPotential: ion0

Loop execution max-interations = 5

=========================================================
  Start QMCFixedSampleLinearOptimize
  File Root qmc.s000 append = no 
=========================================================
  Skip QMCDriver::putQMCInfo 
  Resetting Properties of the walkers 1 x 14
  Adding 21 walkers to 0 existing sets
  Total number of walkers: 1.6800000000e+02
  Total weight: 1.6800000000e+02

=========================================================
  Start VMC
  File Root qmc.s000 append = no 
=========================================================
Resetting walkers
  Using the current 21 walkers.
  Total number of walkers: 1.6800000000e+02
  Total weight: 1.6800000000e+02
  Resetting Properties of the walkers 1 x 14

<vmc function="put">
  qmc_counter=0  my_counter=0
  time step      = 5.0000000000e-01
  blocks         = 20
  steps          = 153
  substeps       = 4
  current        = 0
  target samples = 5.1200000000e+05
  walkers/mpi    = 21

  stepsbetweensamples = 1
  SpinMoves      = no
<parameter name="blocks" condition="int">20</parameter>
<parameter name="blocks_between_recompute" condition="int">0</parameter>
<parameter name="check_properties" condition="int">100</parameter>
<parameter name="checkproperties" condition="int">100</parameter>
<parameter name="current" condition="int">0</parameter>
<parameter name="dmcwalkersperthread" condition="real">3.0480000000e+03</parameter>
<parameter name="maxcpusecs" condition="real">3.6000000000e+05</parameter>
<parameter name="record_configs" condition="int">0</parameter>
<parameter name="record_walkers" condition="int">1</parameter>
<parameter name="recordconfigs" condition="int">0</parameter>
<parameter name="recordwalkers" condition="int">1</parameter>
<parameter name="rewind" condition="int">0</parameter>
<parameter name="samples" condition="real">5.1200000000e+05</parameter>
<parameter name="samplesperthread" condition="real">3.0480000000e+03</parameter>
<parameter name="spinmass" condition="double">1.0000000000e+00</parameter>
<parameter name="spinmoves" condition="string">no</parameter>
<parameter name="steps" condition="int">153</parameter>
<parameter name="stepsbetweensamples" condition="int">1</parameter>
<parameter name="store_configs" condition="int">0</parameter>
<parameter name="storeconfigs" condition="int">0</parameter>
<parameter name="sub_steps" condition="int">4</parameter>
<parameter name="substeps" condition="int">4</parameter>
<parameter name="tau" condition="au">5.0000000000e-01</parameter>
<parameter name="time_step" condition="au">5.0000000000e-01</parameter>
<parameter name="timestep" condition="au">5.0000000000e-01</parameter>
<parameter name="use_drift" condition="string">no</parameter>
<parameter name="usedrift" condition="string">no</parameter>
<parameter name="walkers" condition="int">21</parameter>
<parameter name="warmup_steps" condition="int">100</parameter>
<parameter name="warmupsteps" condition="int">100</parameter>
  DumpConfig==false Nothing (configurations, state) will be saved.
  Walker Samples are dumped every 1 steps.
</vmc>
  Set drift_modifier UNR parameter a = 1.0000000000e+00
 Using QMCCostFunction::QMCCostFunction
  Set drift_modifier UNR parameter a = 1.0000000000e+00
<optimization-report>
<vmc stage="main" blocks="20">
  CloneManager::makeClones makes 21 clones for W/Psi/H.
  Cloning methods for both Psi and H are used
===== Memory Usage before cloning =====
Available memory on node 0, free + buffers : 562990 MB
Memory footprint by rank 0 on node 0       : 178 MB
==================================================
===== Memory Usage after cloning =====
Available memory on node 0, free + buffers : 562978 MB
Memory footprint by rank 0 on node 0       : 178 MB
==================================================
  Initial partition of walkers 0 1 2 3 4 5 6 7 8 9 10 11 12 13 14 15 16 17 18 19 20 21 

  Using Particle by Particle moves
  Walker moves without drift
  Total Sample Size   =512064
  Walker distribution on root = 0 1 2 3 4 5 6 7 8 9 10 11 12 13 14 15 16 17 18 19 20 21 
  Using Locality Approximation
===== Memory Usage after the buffer registration =====
Available memory on node 0, free + buffers : 562978 MB
Memory footprint by rank 0 on node 0       : 178 MB
==================================================
  Anonymous Buffer size per walker : 19168 Bytes.
MEMORY increase 0 MB VMC::resetRun
====================================================
  SimpleFixedNodeBranch::finalize after a VMC block
    QMC counter        = 0
    time step          = 0.5
    reference energy   = -6.05696
    reference variance = 0.589129
====================================================
  Execution time = 3.5373e+00
</vmc>
<opt stage="setup">
  <log>
   Reading configurations from h5FileRoot qmc.s000
  QMCCostFunction is created with 21 threads.
  Using Nonlocal PP in Opt: no
   Number of samples loaded to each thread : 3048 3048 3048 3048 3048 3048 3048 3048 3048 3048 3048 3048 3048 3048 3048 3048 3048 3048 3048 3048 3048 
  VMC Eavg = -6.1039e+00
  VMC Evar = 7.3788e-01
  Total weights = 5.1206e+05
  Execution time = 1.5564e+00
  </log>
</opt>
<opt stage="main" walkers="512064">
  <log>

*****************************************
Building overlap and Hamiltonian matrices
*****************************************

Among totally 40 optimized parameters, largest LM parameter change : 4.4223e-01 at parameter 10

******************************************************************************
Init Cost =   7.3788e-01    New Cost =   3.0642e-01  Delta Cost =  -4.3146e-01
******************************************************************************

The new set of parameters is valid. Updating the trial wave function!

*****************************************************************************
Applying the update for shift_i =   1.0000e-02     and shift_s =   2.5000e-01
*****************************************************************************
  Execution time = 6.0567e+00
  </log>
  <optVariables href="qmc.s000.opt.xml">
 uu_0                 1.432065e-01 1 1  ON 0
 uu_1                 1.503003e-01 1 1  ON 1
 uu_2                 6.029945e-02 1 1  ON 2
 uu_3                 1.248056e-02 1 1  ON 3
 uu_4                -1.726969e-02 1 1  ON 4
 uu_5                -3.306331e-02 1 1  ON 5
 uu_6                -4.270543e-02 1 1  ON 6
 uu_7                -4.683620e-02 1 1  ON 7
 uu_8                -4.484239e-02 1 1  ON 8
 uu_9                -4.018918e-02 1 1  ON 9
 ud_0                 4.422335e-01 1 1  ON 10
 ud_1                 2.171351e-01 1 1  ON 11
 ud_2                 6.376663e-02 1 1  ON 12
 ud_3                -5.381040e-03 1 1  ON 13
 ud_4                -3.886804e-02 1 1  ON 14
 ud_5                -5.922477e-02 1 1  ON 15
 ud_6                -7.189876e-02 1 1  ON 16
 ud_7                -7.889125e-02 1 1  ON 17
 ud_8                -7.463124e-02 1 1  ON 18
 ud_9                -7.037770e-02 1 1  ON 19
eSi_0                -1.891508e-01 1 1  ON 20
eSi_1                -4.628230e-02 1 1  ON 21
eSi_2                 2.257659e-03 1 1  ON 22
eSi_3                 4.932708e-02 1 1  ON 23
eSi_4                 6.521792e-02 1 1  ON 24
eSi_5                 4.758179e-02 1 1  ON 25
eSi_6                 2.659774e-02 1 1  ON 26
eSi_7                 2.253791e-02 1 1  ON 27
eSi_8                 1.993634e-02 1 1  ON 28
eSi_9                 3.247074e-03 1 1  ON 29
 eH_0                -1.533424e-01 1 1  ON 30
 eH_1                -1.445800e-01 1 1  ON 31
 eH_2                -8.718552e-02 1 1  ON 32
 eH_3                -4.262292e-02 1 1  ON 33
 eH_4                -3.520120e-03 1 1  ON 34
 eH_5                 3.618048e-02 1 1  ON 35
 eH_6                 7.748725e-02 1 1  ON 36
 eH_7                 9.531101e-02 1 1  ON 37
 eH_8                 1.036382e-01 1 1  ON 38
 eH_9                 7.362376e-02 1 1  ON 39
  </optVariables>
   Restore the number of walkers to 21, removing 0 walkers.
</opt>
</optimization-report>
  QMC Execution time = 6.058 secs

=========================================================
  Start QMCFixedSampleLinearOptimize
  File Root qmc.s001 append = no 
=========================================================
  Skip QMCDriver::putQMCInfo 
  Resetting Properties of the walkers 1 x 14

=========================================================
  Start VMC
  File Root qmc.s001 append = no 
=========================================================
Using existing walkers 
  Resetting Properties of the walkers 1 x 14

<vmc function="put">
  qmc_counter=1  my_counter=0
  time step      = 0.5
  blocks         = 20
  steps          = 153
  substeps       = 4
  current        = 0
  target samples = 5.12e+05
  walkers/mpi    = 21

  stepsbetweensamples = 1
  SpinMoves      = no
<parameter name="blocks" condition="int">20</parameter>
<parameter name="blocks_between_recompute" condition="int">0</parameter>
<parameter name="check_properties" condition="int">100</parameter>
<parameter name="checkproperties" condition="int">100</parameter>
<parameter name="current" condition="int">0</parameter>
<parameter name="dmcwalkersperthread" condition="real">3048</parameter>
<parameter name="maxcpusecs" condition="real">3.6e+05</parameter>
<parameter name="record_configs" condition="int">0</parameter>
<parameter name="record_walkers" condition="int">1</parameter>
<parameter name="recordconfigs" condition="int">0</parameter>
<parameter name="recordwalkers" condition="int">1</parameter>
<parameter name="rewind" condition="int">0</parameter>
<parameter name="samples" condition="real">5.12e+05</parameter>
<parameter name="samplesperthread" condition="real">3048</parameter>
<parameter name="spinmass" condition="double">1</parameter>
<parameter name="spinmoves" condition="string">no</parameter>
<parameter name="steps" condition="int">153</parameter>
<parameter name="stepsbetweensamples" condition="int">1</parameter>
<parameter name="store_configs" condition="int">0</parameter>
<parameter name="storeconfigs" condition="int">0</parameter>
<parameter name="sub_steps" condition="int">4</parameter>
<parameter name="substeps" condition="int">4</parameter>
<parameter name="tau" condition="au">0.5</parameter>
<parameter name="time_step" condition="au">0.5</parameter>
<parameter name="timestep" condition="au">0.5</parameter>
<parameter name="use_drift" condition="string">no</parameter>
<parameter name="usedrift" condition="string">no</parameter>
<parameter name="walkers" condition="int">1</parameter>
<parameter name="warmup_steps" condition="int">100</parameter>
<parameter name="warmupsteps" condition="int">100</parameter>
  DumpConfig==false Nothing (configurations, state) will be saved.
  Walker Samples are dumped every 1 steps.
</vmc>
    Restarting, cummulative properties:
      energy     = -6.057
      variance   = 0
      r2accepted = 1e-10
      r2proposed = 1e-10
  Set drift_modifier UNR parameter a = 1
 Using QMCCostFunction::QMCCostFunction
  Set drift_modifier UNR parameter a = 1.0000e+00
  EstimatorManagerBase::add replace LocalEnergy estimator.
<optimization-report>
<vmc stage="main" blocks="20">
  Cannot make clones again. Use existing 21 clones
  Initial partition of walkers 0 1 2 3 4 5 6 7 8 9 10 11 12 13 14 15 16 17 18 19 20 21 

  Using Particle by Particle moves
  Walker moves without drift
  Total Sample Size   =512064
  Walker distribution on root = 0 1 2 3 4 5 6 7 8 9 10 11 12 13 14 15 16 17 18 19 20 21 
  Using Locality Approximation
===== Memory Usage after the buffer registration =====
Available memory on node 0, free + buffers : 562690 MB
Memory footprint by rank 0 on node 0       : 292 MB
==================================================
  Anonymous Buffer size per walker : 19168 Bytes.
MEMORY increase 0 MB VMC::resetRun
====================================================
  SimpleFixedNodeBranch::finalize after a VMC block
    QMC counter        = 1
    time step          = 0.5
    reference energy   = -6.22075
    reference variance = 0.105045
====================================================
  Execution time = 3.5246e+00
</vmc>
<opt stage="setup">
  <log>
   Reading configurations from h5FileRoot qmc.s001
  QMCCostFunction is created with 21 threads.
  Using Nonlocal PP in Opt: no
   Number of samples loaded to each thread : 3048 3048 3048 3048 3048 3048 3048 3048 3048 3048 3048 3048 3048 3048 3048 3048 3048 3048 3048 3048 3048 
  VMC Eavg = -6.2449e+00
  VMC Evar = 2.9001e-01
  Total weights = 5.1206e+05
  Execution time = 1.5570e+00
  </log>
</opt>
<opt stage="main" walkers="512064">
  <log>

*****************************************
Building overlap and Hamiltonian matrices
*****************************************

Among totally 40 optimized parameters, largest LM parameter change : 2.5400e-01 at parameter 10

******************************************************************************
Init Cost =   2.9001e-01    New Cost =   2.4416e-01  Delta Cost =  -4.5849e-02
******************************************************************************

The new set of parameters is valid. Updating the trial wave function!

*****************************************************************************
Applying the update for shift_i =   1.0000e-02     and shift_s =   6.2500e-02
*****************************************************************************
  Execution time = 6.0521e+00
  </log>
  <optVariables href="qmc.s001.opt.xml">
 uu_0                 2.666034e-01 1 1  ON 0
 uu_1                 2.546704e-01 1 1  ON 1
 uu_2                 1.118668e-01 1 1  ON 2
 uu_3                 2.795854e-02 1 1  ON 3
 uu_4                -2.663521e-02 1 1  ON 4
 uu_5                -5.867707e-02 1 1  ON 5
 uu_6                -7.758375e-02 1 1  ON 6
 uu_7                -8.645184e-02 1 1  ON 7
 uu_8                -8.246199e-02 1 1  ON 8
 uu_9                -6.839948e-02 1 1  ON 9
 ud_0                 6.962347e-01 1 1  ON 10
 ud_1                 3.806253e-01 1 1  ON 11
 ud_2                 1.584564e-01 1 1  ON 12
 ud_3                 3.179098e-02 1 1  ON 13
 ud_4                -3.688826e-02 1 1  ON 14
 ud_5                -8.173024e-02 1 1  ON 15
 ud_6                -1.118990e-01 1 1  ON 16
 ud_7                -1.307038e-01 1 1  ON 17
 ud_8                -1.294854e-01 1 1  ON 18
 ud_9                -1.221744e-01 1 1  ON 19
eSi_0                -3.093479e-01 1 1  ON 20
eSi_1                -1.044372e-01 1 1  ON 21
eSi_2                -1.233788e-02 1 1  ON 22
eSi_3                 7.646697e-02 1 1  ON 23
eSi_4                 1.100552e-01 1 1  ON 24
eSi_5                 8.423888e-02 1 1  ON 25
eSi_6                 4.600682e-02 1 1  ON 26
eSi_7                 4.914263e-02 1 1  ON 27
eSi_8                 5.083918e-02 1 1  ON 28
eSi_9                 9.854024e-03 1 1  ON 29
 eH_0                -2.789744e-01 1 1  ON 30
 eH_1                -2.576241e-01 1 1  ON 31
 eH_2                -1.725396e-01 1 1  ON 32
 eH_3                -9.482984e-02 1 1  ON 33
 eH_4                -2.269710e-02 1 1  ON 34
 eH_5                 5.140121e-02 1 1  ON 35
 eH_6                 1.279958e-01 1 1  ON 36
 eH_7                 1.737944e-01 1 1  ON 37
 eH_8                 1.942069e-01 1 1  ON 38
 eH_9                 1.497593e-01 1 1  ON 39
  </optVariables>
   Restore the number of walkers to 21, removing 0 walkers.
</opt>
</optimization-report>
  QMC Execution time = 6.054 secs

=========================================================
  Start QMCFixedSampleLinearOptimize
  File Root qmc.s002 append = no 
=========================================================
  Skip QMCDriver::putQMCInfo 
  Resetting Properties of the walkers 1 x 14

=========================================================
  Start VMC
  File Root qmc.s002 append = no 
=========================================================
Using existing walkers 
  Resetting Properties of the walkers 1 x 14

<vmc function="put">
  qmc_counter=2  my_counter=0
  time step      = 0.5
  blocks         = 20
  steps          = 153
  substeps       = 4
  current        = 0
  target samples = 5.12e+05
  walkers/mpi    = 21

  stepsbetweensamples = 1
  SpinMoves      = no
<parameter name="blocks" condition="int">20</parameter>
<parameter name="blocks_between_recompute" condition="int">0</parameter>
<parameter name="check_properties" condition="int">100</parameter>
<parameter name="checkproperties" condition="int">100</parameter>
<parameter name="current" condition="int">0</parameter>
<parameter name="dmcwalkersperthread" condition="real">3048</parameter>
<parameter name="maxcpusecs" condition="real">3.6e+05</parameter>
<parameter name="record_configs" condition="int">0</parameter>
<parameter name="record_walkers" condition="int">1</parameter>
<parameter name="recordconfigs" condition="int">0</parameter>
<parameter name="recordwalkers" condition="int">1</parameter>
<parameter name="rewind" condition="int">0</parameter>
<parameter name="samples" condition="real">5.12e+05</parameter>
<parameter name="samplesperthread" condition="real">3048</parameter>
<parameter name="spinmass" condition="double">1</parameter>
<parameter name="spinmoves" condition="string">no</parameter>
<parameter name="steps" condition="int">153</parameter>
<parameter name="stepsbetweensamples" condition="int">1</parameter>
<parameter name="store_configs" condition="int">0</parameter>
<parameter name="storeconfigs" condition="int">0</parameter>
<parameter name="sub_steps" condition="int">4</parameter>
<parameter name="substeps" condition="int">4</parameter>
<parameter name="tau" condition="au">0.5</parameter>
<parameter name="time_step" condition="au">0.5</parameter>
<parameter name="timestep" condition="au">0.5</parameter>
<parameter name="use_drift" condition="string">no</parameter>
<parameter name="usedrift" condition="string">no</parameter>
<parameter name="walkers" condition="int">1</parameter>
<parameter name="warmup_steps" condition="int">100</parameter>
<parameter name="warmupsteps" condition="int">100</parameter>
  DumpConfig==false Nothing (configurations, state) will be saved.
  Walker Samples are dumped every 1 steps.
</vmc>
    Restarting, cummulative properties:
      energy     = -6.139
      variance   = 0
      r2accepted = 1e-10
      r2proposed = 1e-10
  Set drift_modifier UNR parameter a = 1
 Using QMCCostFunction::QMCCostFunction
  Set drift_modifier UNR parameter a = 1.0000e+00
  EstimatorManagerBase::add replace LocalEnergy estimator.
<optimization-report>
<vmc stage="main" blocks="20">
  Cannot make clones again. Use existing 21 clones
  Initial partition of walkers 0 1 2 3 4 5 6 7 8 9 10 11 12 13 14 15 16 17 18 19 20 21 

  Using Particle by Particle moves
  Walker moves without drift
  Total Sample Size   =512064
  Walker distribution on root = 0 1 2 3 4 5 6 7 8 9 10 11 12 13 14 15 16 17 18 19 20 21 
  Using Locality Approximation
===== Memory Usage after the buffer registration =====
Available memory on node 0, free + buffers : 562689 MB
Memory footprint by rank 0 on node 0       : 292 MB
==================================================
  Anonymous Buffer size per walker : 19168 Bytes.
MEMORY increase 0 MB VMC::resetRun
====================================================
  SimpleFixedNodeBranch::finalize after a VMC block
    QMC counter        = 2
    time step          = 0.5
    reference energy   = -6.25269
    reference variance = 0.0445006
====================================================
  Execution time = 3.5011e+00
</vmc>
<opt stage="setup">
  <log>
   Reading configurations from h5FileRoot qmc.s002
  QMCCostFunction is created with 21 threads.
  Using Nonlocal PP in Opt: no
   Number of samples loaded to each thread : 3048 3048 3048 3048 3048 3048 3048 3048 3048 3048 3048 3048 3048 3048 3048 3048 3048 3048 3048 3048 3048 
  VMC Eavg = -6.2739e+00
  VMC Evar = 2.4783e-01
  Total weights = 5.1206e+05
  Execution time = 1.5564e+00
  </log>
</opt>
<opt stage="main" walkers="512064">
  <log>

*****************************************
Building overlap and Hamiltonian matrices
*****************************************

Among totally 40 optimized parameters, largest LM parameter change : 9.7673e-02 at parameter 10

******************************************************************************
Init Cost =   2.4783e-01    New Cost =   2.4602e-01  Delta Cost =  -1.8131e-03
******************************************************************************

The new set of parameters is valid. Updating the trial wave function!

*****************************************************************************
Applying the update for shift_i =   1.0000e-02     and shift_s =   1.5625e-02
*****************************************************************************
  Execution time = 6.0273e+00
  </log>
  <optVariables href="qmc.s002.opt.xml">
 uu_0                 3.545415e-01 1 1  ON 0
 uu_1                 3.012917e-01 1 1  ON 1
 uu_2                 1.440436e-01 1 1  ON 2
 uu_3                 4.660739e-02 1 1  ON 3
 uu_4                -1.819592e-02 1 1  ON 4
 uu_5                -5.803143e-02 1 1  ON 5
 uu_6                -8.324318e-02 1 1  ON 6
 uu_7                -9.739582e-02 1 1  ON 7
 uu_8                -9.604381e-02 1 1  ON 8
 uu_9                -8.453153e-02 1 1  ON 9
 ud_0                 7.939078e-01 1 1  ON 10
 ud_1                 4.561471e-01 1 1  ON 11
 ud_2                 2.196765e-01 1 1  ON 12
 ud_3                 7.559935e-02 1 1  ON 13
 ud_4                -7.121504e-03 1 1  ON 14
 ud_5                -6.360665e-02 1 1  ON 15
 ud_6                -1.038008e-01 1 1  ON 16
 ud_7                -1.317882e-01 1 1  ON 17
 ud_8                -1.378794e-01 1 1  ON 18
 ud_9                -1.332162e-01 1 1  ON 19
eSi_0                -3.763545e-01 1 1  ON 20
eSi_1                -1.208352e-01 1 1  ON 21
eSi_2                -2.009885e-02 1 1  ON 22
eSi_3                 8.075710e-02 1 1  ON 23
eSi_4                 1.183268e-01 1 1  ON 24
eSi_5                 9.403473e-02 1 1  ON 25
eSi_6                 5.706005e-02 1 1  ON 26
eSi_7                 6.360436e-02 1 1  ON 27
eSi_8                 8.228996e-02 1 1  ON 28
eSi_9                 1.987893e-02 1 1  ON 29
 eH_0                -3.478827e-01 1 1  ON 30
 eH_1                -3.173564e-01 1 1  ON 31
 eH_2                -2.228952e-01 1 1  ON 32
 eH_3                -1.303934e-01 1 1  ON 33
 eH_4                -4.155674e-02 1 1  ON 34
 eH_5                 5.209785e-02 1 1  ON 35
 eH_6                 1.441268e-01 1 1  ON 36
 eH_7                 2.047549e-01 1 1  ON 37
 eH_8                 2.336330e-01 1 1  ON 38
 eH_9                 1.907641e-01 1 1  ON 39
  </optVariables>
   Restore the number of walkers to 21, removing 0 walkers.
</opt>
</optimization-report>
  QMC Execution time = 6.029 secs

=========================================================
  Start QMCFixedSampleLinearOptimize
  File Root qmc.s003 append = no 
=========================================================
  Skip QMCDriver::putQMCInfo 
  Resetting Properties of the walkers 1 x 14

=========================================================
  Start VMC
  File Root qmc.s003 append = no 
=========================================================
Using existing walkers 
  Resetting Properties of the walkers 1 x 14

<vmc function="put">
  qmc_counter=3  my_counter=0
  time step      = 0.5
  blocks         = 20
  steps          = 153
  substeps       = 4
  current        = 0
  target samples = 5.12e+05
  walkers/mpi    = 21

  stepsbetweensamples = 1
  SpinMoves      = no
<parameter name="blocks" condition="int">20</parameter>
<parameter name="blocks_between_recompute" condition="int">0</parameter>
<parameter name="check_properties" condition="int">100</parameter>
<parameter name="checkproperties" condition="int">100</parameter>
<parameter name="current" condition="int">0</parameter>
<parameter name="dmcwalkersperthread" condition="real">3048</parameter>
<parameter name="maxcpusecs" condition="real">3.6e+05</parameter>
<parameter name="record_configs" condition="int">0</parameter>
<parameter name="record_walkers" condition="int">1</parameter>
<parameter name="recordconfigs" condition="int">0</parameter>
<parameter name="recordwalkers" condition="int">1</parameter>
<parameter name="rewind" condition="int">0</parameter>
<parameter name="samples" condition="real">5.12e+05</parameter>
<parameter name="samplesperthread" condition="real">3048</parameter>
<parameter name="spinmass" condition="double">1</parameter>
<parameter name="spinmoves" condition="string">no</parameter>
<parameter name="steps" condition="int">153</parameter>
<parameter name="stepsbetweensamples" condition="int">1</parameter>
<parameter name="store_configs" condition="int">0</parameter>
<parameter name="storeconfigs" condition="int">0</parameter>
<parameter name="sub_steps" condition="int">4</parameter>
<parameter name="substeps" condition="int">4</parameter>
<parameter name="tau" condition="au">0.5</parameter>
<parameter name="time_step" condition="au">0.5</parameter>
<parameter name="timestep" condition="au">0.5</parameter>
<parameter name="use_drift" condition="string">no</parameter>
<parameter name="usedrift" condition="string">no</parameter>
<parameter name="walkers" condition="int">1</parameter>
<parameter name="warmup_steps" condition="int">100</parameter>
<parameter name="warmupsteps" condition="int">100</parameter>
  DumpConfig==false Nothing (configurations, state) will be saved.
  Walker Samples are dumped every 1 steps.
</vmc>
    Restarting, cummulative properties:
      energy     = -6.177
      variance   = 0
      r2accepted = 1e-10
      r2proposed = 1e-10
  Set drift_modifier UNR parameter a = 1
 Using QMCCostFunction::QMCCostFunction
  Set drift_modifier UNR parameter a = 1.0000e+00
  EstimatorManagerBase::add replace LocalEnergy estimator.
<optimization-report>
<vmc stage="main" blocks="20">
  Cannot make clones again. Use existing 21 clones
  Initial partition of walkers 0 1 2 3 4 5 6 7 8 9 10 11 12 13 14 15 16 17 18 19 20 21 

  Using Particle by Particle moves
  Walker moves without drift
  Total Sample Size   =512064
  Walker distribution on root = 0 1 2 3 4 5 6 7 8 9 10 11 12 13 14 15 16 17 18 19 20 21 
  Using Locality Approximation
===== Memory Usage after the buffer registration =====
Available memory on node 0, free + buffers : 562689 MB
Memory footprint by rank 0 on node 0       : 292 MB
==================================================
  Anonymous Buffer size per walker : 19168 Bytes.
MEMORY increase 0 MB VMC::resetRun
====================================================
  SimpleFixedNodeBranch::finalize after a VMC block
    QMC counter        = 3
    time step          = 0.5
    reference energy   = -6.26557
    reference variance = 0.0447734
====================================================
  Execution time = 3.4914e+00
</vmc>
<opt stage="setup">
  <log>
   Reading configurations from h5FileRoot qmc.s003
  QMCCostFunction is created with 21 threads.
  Using Nonlocal PP in Opt: no
   Number of samples loaded to each thread : 3048 3048 3048 3048 3048 3048 3048 3048 3048 3048 3048 3048 3048 3048 3048 3048 3048 3048 3048 3048 3048 
  VMC Eavg = -6.2759e+00
  VMC Evar = 2.3694e-01
  Total weights = 5.1206e+05
  Execution time = 1.5553e+00
  </log>
</opt>
<opt stage="main" walkers="512064">
  <log>

*****************************************
Building overlap and Hamiltonian matrices
*****************************************

Among totally 40 optimized parameters, largest LM parameter change : 6.2164e-02 at parameter 0

******************************************************************************
Init Cost =   2.3694e-01    New Cost =   2.3610e-01  Delta Cost =  -8.4849e-04
******************************************************************************

The new set of parameters is valid. Updating the trial wave function!

*****************************************************************************
Applying the update for shift_i =   1.0000e-02     and shift_s =   3.9062e-03
*****************************************************************************
  Execution time = 6.0272e+00
  </log>
  <optVariables href="qmc.s003.opt.xml">
 uu_0                 4.167055e-01 1 1  ON 0
 uu_1                 3.221928e-01 1 1  ON 1
 uu_2                 1.638067e-01 1 1  ON 2
 uu_3                 6.125621e-02 1 1  ON 3
 uu_4                -6.755314e-03 1 1  ON 4
 uu_5                -4.989458e-02 1 1  ON 5
 uu_6                -7.837704e-02 1 1  ON 6
 uu_7                -9.517614e-02 1 1  ON 7
 uu_8                -9.667427e-02 1 1  ON 8
 uu_9                -9.015326e-02 1 1  ON 9
 ud_0                 8.426117e-01 1 1  ON 10
 ud_1                 5.006475e-01 1 1  ON 11
 ud_2                 2.616168e-01 1 1  ON 12
 ud_3                 1.130890e-01 1 1  ON 13
 ud_4                 2.494701e-02 1 1  ON 14
 ud_5                -3.686072e-02 1 1  ON 15
 ud_6                -8.271487e-02 1 1  ON 16
 ud_7                -1.158205e-01 1 1  ON 17
 ud_8                -1.277021e-01 1 1  ON 18
 ud_9                -1.293920e-01 1 1  ON 19
eSi_0                -4.047317e-01 1 1  ON 20
eSi_1                -1.296542e-01 1 1  ON 21
eSi_2                -2.719427e-02 1 1  ON 22
eSi_3                 7.675587e-02 1 1  ON 23
eSi_4                 1.148366e-01 1 1  ON 24
eSi_5                 9.123940e-02 1 1  ON 25
eSi_6                 5.173642e-02 1 1  ON 26
eSi_7                 7.087637e-02 1 1  ON 27
eSi_8                 1.146362e-01 1 1  ON 28
eSi_9                 3.666204e-02 1 1  ON 29
 eH_0                -3.846055e-01 1 1  ON 30
 eH_1                -3.514246e-01 1 1  ON 31
 eH_2                -2.552584e-01 1 1  ON 32
 eH_3                -1.570054e-01 1 1  ON 33
 eH_4                -6.147361e-02 1 1  ON 34
 eH_5                 4.026871e-02 1 1  ON 35
 eH_6                 1.408590e-01 1 1  ON 36
 eH_7                 2.095826e-01 1 1  ON 37
 eH_8                 2.440238e-01 1 1  ON 38
 eH_9                 2.110628e-01 1 1  ON 39
  </optVariables>
   Restore the number of walkers to 21, removing 0 walkers.
</opt>
</optimization-report>
  QMC Execution time = 6.029 secs

=========================================================
  Start QMCFixedSampleLinearOptimize
  File Root qmc.s004 append = no 
=========================================================
  Skip QMCDriver::putQMCInfo 
  Resetting Properties of the walkers 1 x 14

=========================================================
  Start VMC
  File Root qmc.s004 append = no 
=========================================================
Using existing walkers 
  Resetting Properties of the walkers 1 x 14

<vmc function="put">
  qmc_counter=4  my_counter=0
  time step      = 0.5
  blocks         = 20
  steps          = 153
  substeps       = 4
  current        = 0
  target samples = 5.12e+05
  walkers/mpi    = 21

  stepsbetweensamples = 1
  SpinMoves      = no
<parameter name="blocks" condition="int">20</parameter>
<parameter name="blocks_between_recompute" condition="int">0</parameter>
<parameter name="check_properties" condition="int">100</parameter>
<parameter name="checkproperties" condition="int">100</parameter>
<parameter name="current" condition="int">0</parameter>
<parameter name="dmcwalkersperthread" condition="real">3048</parameter>
<parameter name="maxcpusecs" condition="real">3.6e+05</parameter>
<parameter name="record_configs" condition="int">0</parameter>
<parameter name="record_walkers" condition="int">1</parameter>
<parameter name="recordconfigs" condition="int">0</parameter>
<parameter name="recordwalkers" condition="int">1</parameter>
<parameter name="rewind" condition="int">0</parameter>
<parameter name="samples" condition="real">5.12e+05</parameter>
<parameter name="samplesperthread" condition="real">3048</parameter>
<parameter name="spinmass" condition="double">1</parameter>
<parameter name="spinmoves" condition="string">no</parameter>
<parameter name="steps" condition="int">153</parameter>
<parameter name="stepsbetweensamples" condition="int">1</parameter>
<parameter name="store_configs" condition="int">0</parameter>
<parameter name="storeconfigs" condition="int">0</parameter>
<parameter name="sub_steps" condition="int">4</parameter>
<parameter name="substeps" condition="int">4</parameter>
<parameter name="tau" condition="au">0.5</parameter>
<parameter name="time_step" condition="au">0.5</parameter>
<parameter name="timestep" condition="au">0.5</parameter>
<parameter name="use_drift" condition="string">no</parameter>
<parameter name="usedrift" condition="string">no</parameter>
<parameter name="walkers" condition="int">1</parameter>
<parameter name="warmup_steps" condition="int">100</parameter>
<parameter name="warmupsteps" condition="int">100</parameter>
  DumpConfig==false Nothing (configurations, state) will be saved.
  Walker Samples are dumped every 1 steps.
</vmc>
    Restarting, cummulative properties:
      energy     = -6.199
      variance   = 0
      r2accepted = 1e-10
      r2proposed = 1e-10
  Set drift_modifier UNR parameter a = 1
 Using QMCCostFunction::QMCCostFunction
  Set drift_modifier UNR parameter a = 1.0000e+00
  EstimatorManagerBase::add replace LocalEnergy estimator.
<optimization-report>
<vmc stage="main" blocks="20">
  Cannot make clones again. Use existing 21 clones
  Initial partition of walkers 0 1 2 3 4 5 6 7 8 9 10 11 12 13 14 15 16 17 18 19 20 21 

  Using Particle by Particle moves
  Walker moves without drift
  Total Sample Size   =512064
  Walker distribution on root = 0 1 2 3 4 5 6 7 8 9 10 11 12 13 14 15 16 17 18 19 20 21 
  Using Locality Approximation
===== Memory Usage after the buffer registration =====
Available memory on node 0, free + buffers : 562689 MB
Memory footprint by rank 0 on node 0       : 292 MB
==================================================
  Anonymous Buffer size per walker : 19168 Bytes.
MEMORY increase 0 MB VMC::resetRun
====================================================
  SimpleFixedNodeBranch::finalize after a VMC block
    QMC counter        = 4
    time step          = 0.5
    reference energy   = -6.27208
    reference variance = 0.058934
====================================================
  Execution time = 3.4880e+00
</vmc>
<opt stage="setup">
  <log>
   Reading configurations from h5FileRoot qmc.s004
  QMCCostFunction is created with 21 threads.
  Using Nonlocal PP in Opt: no
   Number of samples loaded to each thread : 3048 3048 3048 3048 3048 3048 3048 3048 3048 3048 3048 3048 3048 3048 3048 3048 3048 3048 3048 3048 3048 
  VMC Eavg = -6.2766e+00
  VMC Evar = 2.5006e-01
  Total weights = 5.1206e+05
  Execution time = 1.5494e+00
  </log>
</opt>
<opt stage="main" walkers="512064">
  <log>

*****************************************
Building overlap and Hamiltonian matrices
*****************************************

Among totally 40 optimized parameters, largest LM parameter change : 4.7280e-02 at parameter 0

******************************************************************************
Init Cost =   2.5006e-01    New Cost =   2.4915e-01  Delta Cost =  -9.0460e-04
******************************************************************************

The new set of parameters is valid. Updating the trial wave function!

*****************************************************************************
Applying the update for shift_i =   1.0000e-02     and shift_s =   3.9062e-03
*****************************************************************************
  Execution time = 6.0019e+00
  </log>
  <optVariables href="qmc.s004.opt.xml">
 uu_0                 4.639859e-01 1 1  ON 0
 uu_1                 3.393896e-01 1 1  ON 1
 uu_2                 1.803732e-01 1 1  ON 2
 uu_3                 7.594727e-02 1 1  ON 3
 uu_4                 5.827279e-03 1 1  ON 4
 uu_5                -3.932721e-02 1 1  ON 5
 uu_6                -7.050380e-02 1 1  ON 6
 uu_7                -9.031271e-02 1 1  ON 7
 uu_8                -9.420431e-02 1 1  ON 8
 uu_9                -8.905018e-02 1 1  ON 9
 ud_0                 8.706202e-01 1 1  ON 10
 ud_1                 5.273666e-01 1 1  ON 11
 ud_2                 2.891514e-01 1 1  ON 12
 ud_3                 1.397215e-01 1 1  ON 13
 ud_4                 5.116438e-02 1 1  ON 14
 ud_5                -1.186787e-02 1 1  ON 15
 ud_6                -5.864504e-02 1 1  ON 16
 ud_7                -9.294237e-02 1 1  ON 17
 ud_8                -1.094998e-01 1 1  ON 18
 ud_9                -1.151125e-01 1 1  ON 19
eSi_0                -4.146391e-01 1 1  ON 20
eSi_1                -1.348150e-01 1 1  ON 21
eSi_2                -3.472539e-02 1 1  ON 22
eSi_3                 6.731410e-02 1 1  ON 23
eSi_4                 1.031756e-01 1 1  ON 24
eSi_5                 8.276707e-02 1 1  ON 25
eSi_6                 4.583188e-02 1 1  ON 26
eSi_7                 7.432768e-02 1 1  ON 27
eSi_8                 1.455267e-01 1 1  ON 28
eSi_9                 5.618073e-02 1 1  ON 29
 eH_0                -4.102787e-01 1 1  ON 30
 eH_1                -3.774934e-01 1 1  ON 31
 eH_2                -2.802512e-01 1 1  ON 32
 eH_3                -1.791298e-01 1 1  ON 33
 eH_4                -7.898611e-02 1 1  ON 34
 eH_5                 2.659741e-02 1 1  ON 35
 eH_6                 1.316402e-01 1 1  ON 36
 eH_7                 2.041729e-01 1 1  ON 37
 eH_8                 2.419626e-01 1 1  ON 38
 eH_9                 2.189209e-01 1 1  ON 39
  </optVariables>
   Restore the number of walkers to 21, removing 0 walkers.
</opt>
</optimization-report>
  QMC Execution time = 6.005 secs
Loop execution max-interations = 5
BRANCH resetRun
  Continue with the same input as the previous block.
 SimpleFixedNodeBranch::resetRun detected changes in <parameter>'s 
 BranchMode : 0000001100 0000001100
 iParam (old):                100                 1                 4                 0                 0                 0                 1                 0
 iParam (new):                100                 1                 4                 0                 0                 0                 1                 0
 vParam (old):                0.5               0.1                 1                 1                 1                 1                 1                 1                 1                 0                 0                 1                10                 1                 1                 1                 1
 vParam (new):                0.5               0.1                 1                 1                 1                 1                 1                 1                 1                 0                 0                 1                10                 1                 1                 1                 1

=========================================================
  Start QMCFixedSampleLinearOptimize
  File Root qmc.s005 append = no 
=========================================================
  Skip QMCDriver::putQMCInfo 
  Resetting Properties of the walkers 1 x 14

=========================================================
  Start VMC
  File Root qmc.s005 append = no 
=========================================================
Resetting walkers
  Using the current 21 walkers.
  Total number of walkers: 168
  Total weight: 168
  Resetting Properties of the walkers 1 x 14

<vmc function="put">
  qmc_counter=0  my_counter=0
  time step      = 0.5
  blocks         = 20
  steps          = 153
  substeps       = 4
  current        = 0
  target samples = 512000
  walkers/mpi    = 21

  stepsbetweensamples = 1
  SpinMoves      = no
<parameter name="blocks" condition="int">20</parameter>
<parameter name="blocks_between_recompute" condition="int">0</parameter>
<parameter name="check_properties" condition="int">100</parameter>
<parameter name="checkproperties" condition="int">100</parameter>
<parameter name="current" condition="int">0</parameter>
<parameter name="dmcwalkersperthread" condition="real">3048</parameter>
<parameter name="maxcpusecs" condition="real">360000</parameter>
<parameter name="record_configs" condition="int">0</parameter>
<parameter name="record_walkers" condition="int">1</parameter>
<parameter name="recordconfigs" condition="int">0</parameter>
<parameter name="recordwalkers" condition="int">1</parameter>
<parameter name="rewind" condition="int">0</parameter>
<parameter name="samples" condition="real">512000</parameter>
<parameter name="samplesperthread" condition="real">3048</parameter>
<parameter name="spinmass" condition="double">1</parameter>
<parameter name="spinmoves" condition="string">no</parameter>
<parameter name="steps" condition="int">153</parameter>
<parameter name="stepsbetweensamples" condition="int">1</parameter>
<parameter name="store_configs" condition="int">0</parameter>
<parameter name="storeconfigs" condition="int">0</parameter>
<parameter name="sub_steps" condition="int">4</parameter>
<parameter name="substeps" condition="int">4</parameter>
<parameter name="tau" condition="au">0.5</parameter>
<parameter name="time_step" condition="au">0.5</parameter>
<parameter name="timestep" condition="au">0.5</parameter>
<parameter name="use_drift" condition="string">no</parameter>
<parameter name="usedrift" condition="string">no</parameter>
<parameter name="walkers" condition="int">21</parameter>
<parameter name="warmup_steps" condition="int">100</parameter>
<parameter name="warmupsteps" condition="int">100</parameter>
  DumpConfig==false Nothing (configurations, state) will be saved.
  Walker Samples are dumped every 1 steps.
</vmc>
    Restarting, cummulative properties:
      energy     = -6.213610464
      variance   = 0
      r2accepted = 1e-10
      r2proposed = 1e-10
  Set drift_modifier UNR parameter a = 1
 Using QMCCostFunction::QMCCostFunction
  Set drift_modifier UNR parameter a = 1.0000000000e+00
  EstimatorManagerBase::add replace LocalEnergy estimator.
<optimization-report>
<vmc stage="main" blocks="20">
  Cannot make clones again. Use existing 21 clones
  Initial partition of walkers 0 1 2 3 4 5 6 7 8 9 10 11 12 13 14 15 16 17 18 19 20 21 

  Using Particle by Particle moves
  Walker moves without drift
  Total Sample Size   =512064
  Walker distribution on root = 0 1 2 3 4 5 6 7 8 9 10 11 12 13 14 15 16 17 18 19 20 21 
  Using Locality Approximation
===== Memory Usage after the buffer registration =====
Available memory on node 0, free + buffers : 562688 MB
Memory footprint by rank 0 on node 0       : 293 MB
==================================================
  Anonymous Buffer size per walker : 19168 Bytes.
MEMORY increase 0 MB VMC::resetRun
====================================================
  SimpleFixedNodeBranch::finalize after a VMC block
    QMC counter        = 5
    time step          = 0.5
    reference energy   = -6.25744
    reference variance = 0.0493784
====================================================
  Execution time = 3.5019e+00
</vmc>
<opt stage="setup">
  <log>
   Reading configurations from h5FileRoot qmc.s005
  QMCCostFunction is created with 21 threads.
  Using Nonlocal PP in Opt: no
   Number of samples loaded to each thread : 3048 3048 3048 3048 3048 3048 3048 3048 3048 3048 3048 3048 3048 3048 3048 3048 3048 3048 3048 3048 3048 
  VMC Eavg = -6.2772e+00
  VMC Evar = 2.3393e-01
  Total weights = 5.1206e+05
  Execution time = 1.5560e+00
  </log>
</opt>
<opt stage="main" walkers="512064">
  <log>

*****************************************
Building overlap and Hamiltonian matrices
*****************************************

Among totally 40 optimized parameters, largest LM parameter change : 3.3550e-02 at parameter 0

******************************************************************************
Init Cost =  -5.6261e+00    New Cost =  -5.6264e+00  Delta Cost =  -2.6732e-04
******************************************************************************

The new set of parameters is valid. Updating the trial wave function!

*****************************************************************************
Applying the update for shift_i =   1.0000e-02     and shift_s =   2.5000e-01
*****************************************************************************
  Execution time = 6.0383e+00
  </log>
  <optVariables href="qmc.s005.opt.xml">
 uu_0                 4.975361e-01 1 1  ON 0
 uu_1                 3.498474e-01 1 1  ON 1
 uu_2                 1.923600e-01 1 1  ON 2
 uu_3                 8.712392e-02 1 1  ON 3
 uu_4                 1.717034e-02 1 1  ON 4
 uu_5                -2.863136e-02 1 1  ON 5
 uu_6                -6.009202e-02 1 1  ON 6
 uu_7                -8.015325e-02 1 1  ON 7
 uu_8                -8.610690e-02 1 1  ON 8
 uu_9                -8.184498e-02 1 1  ON 9
 ud_0                 8.945215e-01 1 1  ON 10
 ud_1                 5.504504e-01 1 1  ON 11
 ud_2                 3.117137e-01 1 1  ON 12
 ud_3                 1.618847e-01 1 1  ON 13
 ud_4                 7.217836e-02 1 1  ON 14
 ud_5                 8.499551e-03 1 1  ON 15
 ud_6                -3.934392e-02 1 1  ON 16
 ud_7                -7.481810e-02 1 1  ON 17
 ud_8                -9.309900e-02 1 1  ON 18
 ud_9                -1.009527e-01 1 1  ON 19
eSi_0                -4.178461e-01 1 1  ON 20
eSi_1                -1.388272e-01 1 1  ON 21
eSi_2                -4.002300e-02 1 1  ON 22
eSi_3                 5.974346e-02 1 1  ON 23
eSi_4                 9.449765e-02 1 1  ON 24
eSi_5                 7.373384e-02 1 1  ON 25
eSi_6                 4.080610e-02 1 1  ON 26
eSi_7                 7.565474e-02 1 1  ON 27
eSi_8                 1.664359e-01 1 1  ON 28
eSi_9                 7.326715e-02 1 1  ON 29
 eH_0                -4.289461e-01 1 1  ON 30
 eH_1                -3.946524e-01 1 1  ON 31
 eH_2                -2.967539e-01 1 1  ON 32
 eH_3                -1.931946e-01 1 1  ON 33
 eH_4                -9.124070e-02 1 1  ON 34
 eH_5                 1.733819e-02 1 1  ON 35
 eH_6                 1.238931e-01 1 1  ON 36
 eH_7                 1.970339e-01 1 1  ON 37
 eH_8                 2.361974e-01 1 1  ON 38
 eH_9                 2.114378e-01 1 1  ON 39
  </optVariables>
   Restore the number of walkers to 21, removing 0 walkers.
</opt>
</optimization-report>
  QMC Execution time = 6.042 secs

=========================================================
  Start QMCFixedSampleLinearOptimize
  File Root qmc.s006 append = no 
=========================================================
  Skip QMCDriver::putQMCInfo 
  Resetting Properties of the walkers 1 x 14

=========================================================
  Start VMC
  File Root qmc.s006 append = no 
=========================================================
Using existing walkers 
  Resetting Properties of the walkers 1 x 14

<vmc function="put">
  qmc_counter=1  my_counter=0
  time step      = 0.5
  blocks         = 20
  steps          = 153
  substeps       = 4
  current        = 0
  target samples = 5.12e+05
  walkers/mpi    = 21

  stepsbetweensamples = 1
  SpinMoves      = no
<parameter name="blocks" condition="int">20</parameter>
<parameter name="blocks_between_recompute" condition="int">0</parameter>
<parameter name="check_properties" condition="int">100</parameter>
<parameter name="checkproperties" condition="int">100</parameter>
<parameter name="current" condition="int">0</parameter>
<parameter name="dmcwalkersperthread" condition="real">3048</parameter>
<parameter name="maxcpusecs" condition="real">3.6e+05</parameter>
<parameter name="record_configs" condition="int">0</parameter>
<parameter name="record_walkers" condition="int">1</parameter>
<parameter name="recordconfigs" condition="int">0</parameter>
<parameter name="recordwalkers" condition="int">1</parameter>
<parameter name="rewind" condition="int">0</parameter>
<parameter name="samples" condition="real">5.12e+05</parameter>
<parameter name="samplesperthread" condition="real">3048</parameter>
<parameter name="spinmass" condition="double">1</parameter>
<parameter name="spinmoves" condition="string">no</parameter>
<parameter name="steps" condition="int">153</parameter>
<parameter name="stepsbetweensamples" condition="int">1</parameter>
<parameter name="store_configs" condition="int">0</parameter>
<parameter name="storeconfigs" condition="int">0</parameter>
<parameter name="sub_steps" condition="int">4</parameter>
<parameter name="substeps" condition="int">4</parameter>
<parameter name="tau" condition="au">0.5</parameter>
<parameter name="time_step" condition="au">0.5</parameter>
<parameter name="timestep" condition="au">0.5</parameter>
<parameter name="use_drift" condition="string">no</parameter>
<parameter name="usedrift" condition="string">no</parameter>
<parameter name="walkers" condition="int">1</parameter>
<parameter name="warmup_steps" condition="int">100</parameter>
<parameter name="warmupsteps" condition="int">100</parameter>
  DumpConfig==false Nothing (configurations, state) will be saved.
  Walker Samples are dumped every 1 steps.
</vmc>
    Restarting, cummulative properties:
      energy     = -6.221
      variance   = 0
      r2accepted = 1e-10
      r2proposed = 1e-10
  Set drift_modifier UNR parameter a = 1
 Using QMCCostFunction::QMCCostFunction
  Set drift_modifier UNR parameter a = 1.0000e+00
  EstimatorManagerBase::add replace LocalEnergy estimator.
<optimization-report>
<vmc stage="main" blocks="20">
  Cannot make clones again. Use existing 21 clones
  Initial partition of walkers 0 1 2 3 4 5 6 7 8 9 10 11 12 13 14 15 16 17 18 19 20 21 

  Using Particle by Particle moves
  Walker moves without drift
  Total Sample Size   =512064
  Walker distribution on root = 0 1 2 3 4 5 6 7 8 9 10 11 12 13 14 15 16 17 18 19 20 21 
  Using Locality Approximation
===== Memory Usage after the buffer registration =====
Available memory on node 0, free + buffers : 562688 MB
Memory footprint by rank 0 on node 0       : 293 MB
==================================================
  Anonymous Buffer size per walker : 19168 Bytes.
MEMORY increase 0 MB VMC::resetRun
====================================================
  SimpleFixedNodeBranch::finalize after a VMC block
    QMC counter        = 6
    time step          = 0.5
    reference energy   = -6.24829
    reference variance = 0.0982006
====================================================
  Execution time = 3.4937e+00
</vmc>
<opt stage="setup">
  <log>
   Reading configurations from h5FileRoot qmc.s006
  QMCCostFunction is created with 21 threads.
  Using Nonlocal PP in Opt: no
   Number of samples loaded to each thread : 3048 3048 3048 3048 3048 3048 3048 3048 3048 3048 3048 3048 3048 3048 3048 3048 3048 3048 3048 3048 3048 
  VMC Eavg = -6.2751e+00
  VMC Evar = 3.1193e-01
  Total weights = 5.1206e+05
  Execution time = 1.5425e+00
  </log>
</opt>
<opt stage="main" walkers="512064">
  <log>

*****************************************
Building overlap and Hamiltonian matrices
*****************************************

Among totally 40 optimized parameters, largest LM parameter change : 2.4884e-02 at parameter 0

******************************************************************************
Init Cost =  -5.6164e+00    New Cost =  -5.6169e+00  Delta Cost =  -5.5448e-04
******************************************************************************

The new set of parameters is valid. Updating the trial wave function!

*****************************************************************************
Applying the update for shift_i =   1.0000e-02     and shift_s =   6.2500e-02
*****************************************************************************
  Execution time = 6.0110e+00
  </log>
  <optVariables href="qmc.s006.opt.xml">
 uu_0                 5.224197e-01 1 1  ON 0
 uu_1                 3.613062e-01 1 1  ON 1
 uu_2                 2.053460e-01 1 1  ON 2
 uu_3                 9.976479e-02 1 1  ON 3
 uu_4                 2.874293e-02 1 1  ON 4
 uu_5                -1.879415e-02 1 1  ON 5
 uu_6                -5.179157e-02 1 1  ON 6
 uu_7                -7.402204e-02 1 1  ON 7
 uu_8                -8.016578e-02 1 1  ON 8
 uu_9                -7.962823e-02 1 1  ON 9
 ud_0                 9.148150e-01 1 1  ON 10
 ud_1                 5.695426e-01 1 1  ON 11
 ud_2                 3.299928e-01 1 1  ON 12
 ud_3                 1.799181e-01 1 1  ON 13
 ud_4                 8.987379e-02 1 1  ON 14
 ud_5                 2.659343e-02 1 1  ON 15
 ud_6                -2.190704e-02 1 1  ON 16
 ud_7                -5.704816e-02 1 1  ON 17
 ud_8                -7.712253e-02 1 1  ON 18
 ud_9                -8.500019e-02 1 1  ON 19
eSi_0                -4.153807e-01 1 1  ON 20
eSi_1                -1.460534e-01 1 1  ON 21
eSi_2                -4.900264e-02 1 1  ON 22
eSi_3                 5.114550e-02 1 1  ON 23
eSi_4                 8.515756e-02 1 1  ON 24
eSi_5                 6.479414e-02 1 1  ON 25
eSi_6                 3.486575e-02 1 1  ON 26
eSi_7                 7.622771e-02 1 1  ON 27
eSi_8                 1.876140e-01 1 1  ON 28
eSi_9                 9.055927e-02 1 1  ON 29
 eH_0                -4.470961e-01 1 1  ON 30
 eH_1                -4.117348e-01 1 1  ON 31
 eH_2                -3.139687e-01 1 1  ON 32
 eH_3                -2.090335e-01 1 1  ON 33
 eH_4                -1.058850e-01 1 1  ON 34
 eH_5                 3.640798e-03 1 1  ON 35
 eH_6                 1.127332e-01 1 1  ON 36
 eH_7                 1.881135e-01 1 1  ON 37
 eH_8                 2.267891e-01 1 1  ON 38
 eH_9                 2.086306e-01 1 1  ON 39
  </optVariables>
   Restore the number of walkers to 21, removing 0 walkers.
</opt>
</optimization-report>
  QMC Execution time = 6.017 secs

=========================================================
  Start QMCFixedSampleLinearOptimize
  File Root qmc.s007 append = no 
=========================================================
  Skip QMCDriver::putQMCInfo 
  Resetting Properties of the walkers 1 x 14

=========================================================
  Start VMC
  File Root qmc.s007 append = no 
=========================================================
Using existing walkers 
  Resetting Properties of the walkers 1 x 14

<vmc function="put">
  qmc_counter=2  my_counter=0
  time step      = 0.5
  blocks         = 20
  steps          = 153
  substeps       = 4
  current        = 0
  target samples = 5.12e+05
  walkers/mpi    = 21

  stepsbetweensamples = 1
  SpinMoves      = no
<parameter name="blocks" condition="int">20</parameter>
<parameter name="blocks_between_recompute" condition="int">0</parameter>
<parameter name="check_properties" condition="int">100</parameter>
<parameter name="checkproperties" condition="int">100</parameter>
<parameter name="current" condition="int">0</parameter>
<parameter name="dmcwalkersperthread" condition="real">3048</parameter>
<parameter name="maxcpusecs" condition="real">3.6e+05</parameter>
<parameter name="record_configs" condition="int">0</parameter>
<parameter name="record_walkers" condition="int">1</parameter>
<parameter name="recordconfigs" condition="int">0</parameter>
<parameter name="recordwalkers" condition="int">1</parameter>
<parameter name="rewind" condition="int">0</parameter>
<parameter name="samples" condition="real">5.12e+05</parameter>
<parameter name="samplesperthread" condition="real">3048</parameter>
<parameter name="spinmass" condition="double">1</parameter>
<parameter name="spinmoves" condition="string">no</parameter>
<parameter name="steps" condition="int">153</parameter>
<parameter name="stepsbetweensamples" condition="int">1</parameter>
<parameter name="store_configs" condition="int">0</parameter>
<parameter name="storeconfigs" condition="int">0</parameter>
<parameter name="sub_steps" condition="int">4</parameter>
<parameter name="substeps" condition="int">4</parameter>
<parameter name="tau" condition="au">0.5</parameter>
<parameter name="time_step" condition="au">0.5</parameter>
<parameter name="timestep" condition="au">0.5</parameter>
<parameter name="use_drift" condition="string">no</parameter>
<parameter name="usedrift" condition="string">no</parameter>
<parameter name="walkers" condition="int">1</parameter>
<parameter name="warmup_steps" condition="int">100</parameter>
<parameter name="warmupsteps" condition="int">100</parameter>
  DumpConfig==false Nothing (configurations, state) will be saved.
  Walker Samples are dumped every 1 steps.
</vmc>
    Restarting, cummulative properties:
      energy     = -6.225
      variance   = 0
      r2accepted = 1e-10
      r2proposed = 1e-10
  Set drift_modifier UNR parameter a = 1
 Using QMCCostFunction::QMCCostFunction
  Set drift_modifier UNR parameter a = 1.0000e+00
  EstimatorManagerBase::add replace LocalEnergy estimator.
<optimization-report>
<vmc stage="main" blocks="20">
  Cannot make clones again. Use existing 21 clones
  Initial partition of walkers 0 1 2 3 4 5 6 7 8 9 10 11 12 13 14 15 16 17 18 19 20 21 

  Using Particle by Particle moves
  Walker moves without drift
  Total Sample Size   =512064
  Walker distribution on root = 0 1 2 3 4 5 6 7 8 9 10 11 12 13 14 15 16 17 18 19 20 21 
  Using Locality Approximation
===== Memory Usage after the buffer registration =====
Available memory on node 0, free + buffers : 562688 MB
Memory footprint by rank 0 on node 0       : 293 MB
==================================================
  Anonymous Buffer size per walker : 19168 Bytes.
MEMORY increase 0 MB VMC::resetRun
====================================================
  SimpleFixedNodeBranch::finalize after a VMC block
    QMC counter        = 7
    time step          = 0.5
    reference energy   = -6.26895
    reference variance = 0.0586339
====================================================
  Execution time = 3.4965e+00
</vmc>
<opt stage="setup">
  <log>
   Reading configurations from h5FileRoot qmc.s007
  QMCCostFunction is created with 21 threads.
  Using Nonlocal PP in Opt: no
   Number of samples loaded to each thread : 3048 3048 3048 3048 3048 3048 3048 3048 3048 3048 3048 3048 3048 3048 3048 3048 3048 3048 3048 3048 3048 
  VMC Eavg = -6.2776e+00
  VMC Evar = 2.5934e-01
  Total weights = 5.1206e+05
  Execution time = 1.5652e+00
  </log>
</opt>
<opt stage="main" walkers="512064">
  <log>

*****************************************
Building overlap and Hamiltonian matrices
*****************************************

Among totally 40 optimized parameters, largest LM parameter change : 1.9745e-02 at parameter 0

******************************************************************************
Init Cost =  -5.6239e+00    New Cost =  -5.6239e+00  Delta Cost =  -1.3066e-05
******************************************************************************

The new set of parameters is valid. Updating the trial wave function!

*****************************************************************************
Applying the update for shift_i =   1.0000e-02     and shift_s =   1.5625e-02
*****************************************************************************
  Execution time = 6.0345e+00
  </log>
  <optVariables href="qmc.s007.opt.xml">
 uu_0                 5.421649e-01 1 1  ON 0
 uu_1                 3.701890e-01 1 1  ON 1
 uu_2                 2.147474e-01 1 1  ON 2
 uu_3                 1.090397e-01 1 1  ON 3
 uu_4                 3.865724e-02 1 1  ON 4
 uu_5                -8.294068e-03 1 1  ON 5
 uu_6                -4.085941e-02 1 1  ON 6
 uu_7                -6.300346e-02 1 1  ON 7
 uu_8                -7.077950e-02 1 1  ON 8
 uu_9                -7.184211e-02 1 1  ON 9
 ud_0                 9.323771e-01 1 1  ON 10
 ud_1                 5.887570e-01 1 1  ON 11
 ud_2                 3.494121e-01 1 1  ON 12
 ud_3                 1.991346e-01 1 1  ON 13
 ud_4                 1.085387e-01 1 1  ON 14
 ud_5                 4.324758e-02 1 1  ON 15
 ud_6                -6.215419e-03 1 1  ON 16
 ud_7                -4.389795e-02 1 1  ON 17
 ud_8                -6.388698e-02 1 1  ON 18
 ud_9                -7.396267e-02 1 1  ON 19
eSi_0                -4.242745e-01 1 1  ON 20
eSi_1                -1.461829e-01 1 1  ON 21
eSi_2                -5.148398e-02 1 1  ON 22
eSi_3                 4.522284e-02 1 1  ON 23
eSi_4                 7.582454e-02 1 1  ON 24
eSi_5                 5.521526e-02 1 1  ON 25
eSi_6                 3.303891e-02 1 1  ON 26
eSi_7                 8.047246e-02 1 1  ON 27
eSi_8                 2.022136e-01 1 1  ON 28
eSi_9                 1.043202e-01 1 1  ON 29
 eH_0                -4.653395e-01 1 1  ON 30
 eH_1                -4.294414e-01 1 1  ON 31
 eH_2                -3.292148e-01 1 1  ON 32
 eH_3                -2.220916e-01 1 1  ON 33
 eH_4                -1.156868e-01 1 1  ON 34
 eH_5                -2.859132e-03 1 1  ON 35
 eH_6                 1.074734e-01 1 1  ON 36
 eH_7                 1.836964e-01 1 1  ON 37
 eH_8                 2.223880e-01 1 1  ON 38
 eH_9                 1.973670e-01 1 1  ON 39
  </optVariables>
   Restore the number of walkers to 21, removing 0 walkers.
</opt>
</optimization-report>
  QMC Execution time = 6.036 secs

=========================================================
  Start QMCFixedSampleLinearOptimize
  File Root qmc.s008 append = no 
=========================================================
  Skip QMCDriver::putQMCInfo 
  Resetting Properties of the walkers 1 x 14

=========================================================
  Start VMC
  File Root qmc.s008 append = no 
=========================================================
Using existing walkers 
  Resetting Properties of the walkers 1 x 14

<vmc function="put">
  qmc_counter=3  my_counter=0
  time step      = 0.5
  blocks         = 20
  steps          = 153
  substeps       = 4
  current        = 0
  target samples = 5.12e+05
  walkers/mpi    = 21

  stepsbetweensamples = 1
  SpinMoves      = no
<parameter name="blocks" condition="int">20</parameter>
<parameter name="blocks_between_recompute" condition="int">0</parameter>
<parameter name="check_properties" condition="int">100</parameter>
<parameter name="checkproperties" condition="int">100</parameter>
<parameter name="current" condition="int">0</parameter>
<parameter name="dmcwalkersperthread" condition="real">3048</parameter>
<parameter name="maxcpusecs" condition="real">3.6e+05</parameter>
<parameter name="record_configs" condition="int">0</parameter>
<parameter name="record_walkers" condition="int">1</parameter>
<parameter name="recordconfigs" condition="int">0</parameter>
<parameter name="recordwalkers" condition="int">1</parameter>
<parameter name="rewind" condition="int">0</parameter>
<parameter name="samples" condition="real">5.12e+05</parameter>
<parameter name="samplesperthread" condition="real">3048</parameter>
<parameter name="spinmass" condition="double">1</parameter>
<parameter name="spinmoves" condition="string">no</parameter>
<parameter name="steps" condition="int">153</parameter>
<parameter name="stepsbetweensamples" condition="int">1</parameter>
<parameter name="store_configs" condition="int">0</parameter>
<parameter name="storeconfigs" condition="int">0</parameter>
<parameter name="sub_steps" condition="int">4</parameter>
<parameter name="substeps" condition="int">4</parameter>
<parameter name="tau" condition="au">0.5</parameter>
<parameter name="time_step" condition="au">0.5</parameter>
<parameter name="timestep" condition="au">0.5</parameter>
<parameter name="use_drift" condition="string">no</parameter>
<parameter name="usedrift" condition="string">no</parameter>
<parameter name="walkers" condition="int">1</parameter>
<parameter name="warmup_steps" condition="int">100</parameter>
<parameter name="warmupsteps" condition="int">100</parameter>
  DumpConfig==false Nothing (configurations, state) will be saved.
  Walker Samples are dumped every 1 steps.
</vmc>
    Restarting, cummulative properties:
      energy     = -6.23
      variance   = 0
      r2accepted = 1e-10
      r2proposed = 1e-10
  Set drift_modifier UNR parameter a = 1
 Using QMCCostFunction::QMCCostFunction
  Set drift_modifier UNR parameter a = 1.0000e+00
  EstimatorManagerBase::add replace LocalEnergy estimator.
<optimization-report>
<vmc stage="main" blocks="20">
  Cannot make clones again. Use existing 21 clones
  Initial partition of walkers 0 1 2 3 4 5 6 7 8 9 10 11 12 13 14 15 16 17 18 19 20 21 

  Using Particle by Particle moves
  Walker moves without drift
  Total Sample Size   =512064
  Walker distribution on root = 0 1 2 3 4 5 6 7 8 9 10 11 12 13 14 15 16 17 18 19 20 21 
  Using Locality Approximation
===== Memory Usage after the buffer registration =====
Available memory on node 0, free + buffers : 562687 MB
Memory footprint by rank 0 on node 0       : 293 MB
==================================================
  Anonymous Buffer size per walker : 19168 Bytes.
MEMORY increase 0 MB VMC::resetRun
====================================================
  SimpleFixedNodeBranch::finalize after a VMC block
    QMC counter        = 8
    time step          = 0.5
    reference energy   = -6.24819
    reference variance = 0.0682959
====================================================
  Execution time = 3.4917e+00
</vmc>
<opt stage="setup">
  <log>
   Reading configurations from h5FileRoot qmc.s008
  QMCCostFunction is created with 21 threads.
  Using Nonlocal PP in Opt: no
   Number of samples loaded to each thread : 3048 3048 3048 3048 3048 3048 3048 3048 3048 3048 3048 3048 3048 3048 3048 3048 3048 3048 3048 3048 3048 
  VMC Eavg = -6.2769e+00
  VMC Evar = 2.6088e-01
  Total weights = 5.1206e+05
  Execution time = 1.5425e+00
  </log>
</opt>
<opt stage="main" walkers="512064">
  <log>

*****************************************
Building overlap and Hamiltonian matrices
*****************************************

Among totally 40 optimized parameters, largest LM parameter change : 2.2098e-02 at parameter 29

******************************************************************************
Init Cost =  -5.6231e+00    New Cost =  -5.6233e+00  Delta Cost =  -1.7252e-04
******************************************************************************

The new set of parameters is valid. Updating the trial wave function!

*****************************************************************************
Applying the update for shift_i =   1.0000e-02     and shift_s =   3.9062e-03
*****************************************************************************
  Execution time = 6.0145e+00
  </log>
  <optVariables href="qmc.s008.opt.xml">
 uu_0                 5.581312e-01 1 1  ON 0
 uu_1                 3.821599e-01 1 1  ON 1
 uu_2                 2.253224e-01 1 1  ON 2
 uu_3                 1.189215e-01 1 1  ON 3
 uu_4                 4.744708e-02 1 1  ON 4
 uu_5                -1.645971e-04 1 1  ON 5
 uu_6                -3.334598e-02 1 1  ON 6
 uu_7                -5.586327e-02 1 1  ON 7
 uu_8                -6.456496e-02 1 1  ON 8
 uu_9                -6.585922e-02 1 1  ON 9
 ud_0                 9.464971e-01 1 1  ON 10
 ud_1                 6.017334e-01 1 1  ON 11
 ud_2                 3.633274e-01 1 1  ON 12
 ud_3                 2.127060e-01 1 1  ON 13
 ud_4                 1.222436e-01 1 1  ON 14
 ud_5                 5.773915e-02 1 1  ON 15
 ud_6                 8.636239e-03 1 1  ON 16
 ud_7                -2.991456e-02 1 1  ON 17
 ud_8                -5.183023e-02 1 1  ON 18
 ud_9                -6.392728e-02 1 1  ON 19
eSi_0                -4.262204e-01 1 1  ON 20
eSi_1                -1.510542e-01 1 1  ON 21
eSi_2                -5.593720e-02 1 1  ON 22
eSi_3                 3.937380e-02 1 1  ON 23
eSi_4                 6.844058e-02 1 1  ON 24
eSi_5                 4.701032e-02 1 1  ON 25
eSi_6                 2.739242e-02 1 1  ON 26
eSi_7                 7.275266e-02 1 1  ON 27
eSi_8                 2.125396e-01 1 1  ON 28
eSi_9                 1.264183e-01 1 1  ON 29
 eH_0                -4.795197e-01 1 1  ON 30
 eH_1                -4.441832e-01 1 1  ON 31
 eH_2                -3.432670e-01 1 1  ON 32
 eH_3                -2.367916e-01 1 1  ON 33
 eH_4                -1.299207e-01 1 1  ON 34
 eH_5                -1.649280e-02 1 1  ON 35
 eH_6                 9.520471e-02 1 1  ON 36
 eH_7                 1.711898e-01 1 1  ON 37
 eH_8                 2.114176e-01 1 1  ON 38
 eH_9                 1.882400e-01 1 1  ON 39
  </optVariables>
   Restore the number of walkers to 21, removing 0 walkers.
</opt>
</optimization-report>
  QMC Execution time = 6.016 secs

=========================================================
  Start QMCFixedSampleLinearOptimize
  File Root qmc.s009 append = no 
=========================================================
  Skip QMCDriver::putQMCInfo 
  Resetting Properties of the walkers 1 x 14

=========================================================
  Start VMC
  File Root qmc.s009 append = no 
=========================================================
Using existing walkers 
  Resetting Properties of the walkers 1 x 14

<vmc function="put">
  qmc_counter=4  my_counter=0
  time step      = 0.5
  blocks         = 20
  steps          = 153
  substeps       = 4
  current        = 0
  target samples = 5.12e+05
  walkers/mpi    = 21

  stepsbetweensamples = 1
  SpinMoves      = no
<parameter name="blocks" condition="int">20</parameter>
<parameter name="blocks_between_recompute" condition="int">0</parameter>
<parameter name="check_properties" condition="int">100</parameter>
<parameter name="checkproperties" condition="int">100</parameter>
<parameter name="current" condition="int">0</parameter>
<parameter name="dmcwalkersperthread" condition="real">3048</parameter>
<parameter name="maxcpusecs" condition="real">3.6e+05</parameter>
<parameter name="record_configs" condition="int">0</parameter>
<parameter name="record_walkers" condition="int">1</parameter>
<parameter name="recordconfigs" condition="int">0</parameter>
<parameter name="recordwalkers" condition="int">1</parameter>
<parameter name="rewind" condition="int">0</parameter>
<parameter name="samples" condition="real">5.12e+05</parameter>
<parameter name="samplesperthread" condition="real">3048</parameter>
<parameter name="spinmass" condition="double">1</parameter>
<parameter name="spinmoves" condition="string">no</parameter>
<parameter name="steps" condition="int">153</parameter>
<parameter name="stepsbetweensamples" condition="int">1</parameter>
<parameter name="store_configs" condition="int">0</parameter>
<parameter name="storeconfigs" condition="int">0</parameter>
<parameter name="sub_steps" condition="int">4</parameter>
<parameter name="substeps" condition="int">4</parameter>
<parameter name="tau" condition="au">0.5</parameter>
<parameter name="time_step" condition="au">0.5</parameter>
<parameter name="timestep" condition="au">0.5</parameter>
<parameter name="use_drift" condition="string">no</parameter>
<parameter name="usedrift" condition="string">no</parameter>
<parameter name="walkers" condition="int">1</parameter>
<parameter name="warmup_steps" condition="int">100</parameter>
<parameter name="warmupsteps" condition="int">100</parameter>
  DumpConfig==false Nothing (configurations, state) will be saved.
  Walker Samples are dumped every 1 steps.
</vmc>
    Restarting, cummulative properties:
      energy     = -6.232
      variance   = 0
      r2accepted = 1e-10
      r2proposed = 1e-10
  Set drift_modifier UNR parameter a = 1
 Using QMCCostFunction::QMCCostFunction
  Set drift_modifier UNR parameter a = 1.0000e+00
  EstimatorManagerBase::add replace LocalEnergy estimator.
<optimization-report>
<vmc stage="main" blocks="20">
  Cannot make clones again. Use existing 21 clones
  Initial partition of walkers 0 1 2 3 4 5 6 7 8 9 10 11 12 13 14 15 16 17 18 19 20 21 

  Using Particle by Particle moves
  Walker moves without drift
  Total Sample Size   =512064
  Walker distribution on root = 0 1 2 3 4 5 6 7 8 9 10 11 12 13 14 15 16 17 18 19 20 21 
  Using Locality Approximation
===== Memory Usage after the buffer registration =====
Available memory on node 0, free + buffers : 562687 MB
Memory footprint by rank 0 on node 0       : 293 MB
==================================================
  Anonymous Buffer size per walker : 19168 Bytes.
MEMORY increase 0 MB VMC::resetRun
====================================================
  SimpleFixedNodeBranch::finalize after a VMC block
    QMC counter        = 9
    time step          = 0.5
    reference energy   = -6.30346
    reference variance = 0.0796612
====================================================
  Execution time = 3.4911e+00
</vmc>
<opt stage="setup">
  <log>
   Reading configurations from h5FileRoot qmc.s009
  QMCCostFunction is created with 21 threads.
  Using Nonlocal PP in Opt: no
   Number of samples loaded to each thread : 3048 3048 3048 3048 3048 3048 3048 3048 3048 3048 3048 3048 3048 3048 3048 3048 3048 3048 3048 3048 3048 
  VMC Eavg = -6.2774e+00
  VMC Evar = 2.4298e-01
  Total weights = 5.1206e+05
  Execution time = 1.5445e+00
  </log>
</opt>
<opt stage="main" walkers="512064">
  <log>

*****************************************
Building overlap and Hamiltonian matrices
*****************************************

Among totally 40 optimized parameters, largest LM parameter change : 2.0969e-02 at parameter 31

******************************************************************************
Init Cost =  -5.6254e+00    New Cost =  -5.6255e+00  Delta Cost =  -1.5265e-04
******************************************************************************

The new set of parameters is valid. Updating the trial wave function!

*****************************************************************************
Applying the update for shift_i =   1.0000e-02     and shift_s =   3.9062e-03
*****************************************************************************
  Execution time = 6.0016e+00
  </log>
  <optVariables href="qmc.s009.opt.xml">
 uu_0                 5.693818e-01 1 1  ON 0
 uu_1                 3.865677e-01 1 1  ON 1
 uu_2                 2.319077e-01 1 1  ON 2
 uu_3                 1.261014e-01 1 1  ON 3
 uu_4                 5.534293e-02 1 1  ON 4
 uu_5                 8.308228e-03 1 1  ON 5
 uu_6                -2.421389e-02 1 1  ON 6
 uu_7                -4.736955e-02 1 1  ON 7
 uu_8                -5.687010e-02 1 1  ON 8
 uu_9                -5.913971e-02 1 1  ON 9
 ud_0                 9.652260e-01 1 1  ON 10
 ud_1                 6.206794e-01 1 1  ON 11
 ud_2                 3.814880e-01 1 1  ON 12
 ud_3                 2.298636e-01 1 1  ON 13
 ud_4                 1.372682e-01 1 1  ON 14
 ud_5                 7.033716e-02 1 1  ON 15
 ud_6                 1.868983e-02 1 1  ON 16
 ud_7                -2.179367e-02 1 1  ON 17
 ud_8                -4.729789e-02 1 1  ON 18
 ud_9                -6.419495e-02 1 1  ON 19
eSi_0                -4.334167e-01 1 1  ON 20
eSi_1                -1.555800e-01 1 1  ON 21
eSi_2                -6.243878e-02 1 1  ON 22
eSi_3                 3.176867e-02 1 1  ON 23
eSi_4                 6.297605e-02 1 1  ON 24
eSi_5                 4.262600e-02 1 1  ON 25
eSi_6                 2.245589e-02 1 1  ON 26
eSi_7                 7.642099e-02 1 1  ON 27
eSi_8                 2.182067e-01 1 1  ON 28
eSi_9                 1.441096e-01 1 1  ON 29
 eH_0                -4.992618e-01 1 1  ON 30
 eH_1                -4.651517e-01 1 1  ON 31
 eH_2                -3.626030e-01 1 1  ON 32
 eH_3                -2.522970e-01 1 1  ON 33
 eH_4                -1.415920e-01 1 1  ON 34
 eH_5                -2.597490e-02 1 1  ON 35
 eH_6                 8.736316e-02 1 1  ON 36
 eH_7                 1.651366e-01 1 1  ON 37
 eH_8                 2.080458e-01 1 1  ON 38
 eH_9                 1.834835e-01 1 1  ON 39
  </optVariables>
   Restore the number of walkers to 21, removing 0 walkers.
</opt>
</optimization-report>
  QMC Execution time = 6.003 secs
  Total Execution time = 60.66 secs

=========================================================
  A new xml input file : qmc.s009.cont.xml
