/global/cscratch1/sd/aannabe/docs/molecules_Si/SiH4/qp2_qmc/fci_natorb/gs_t20/dmc
  Input file(s): qmc.dump.qmc.in-wfj.xml 

=====================================================
                    QMCPACK 3.9.2

       (c) Copyright 2003-  QMCPACK developers

                    Please cite:
 J. Kim et al. J. Phys. Cond. Mat. 30 195901 (2018)
      https://doi.org/10.1088/1361-648X/aab9c3

  Git branch: develop
  Last git commit: 8064ebfec9a8dd88748e8864013168c9aa7e05dd
  Last git commit date: Tue Apr 28 13:44:48 2020 -0500
  Last git commit subject: Merge pull request #2412 from QMCPACK/rc_392
=====================================================
  Global options 

  Total number of MPI ranks = 2176
  Number of MPI groups      = 1
  MPI group ID              = 0
  Number of ranks in group  = 2176
  MPI ranks per node        = 68
  OMP 1st level threads     = 1
  OMP nested threading disabled or only 1 thread on the 2nd level

  Precision used in this calculation, see definitions in the manual:
  Base precision      = double
  Full precision      = double

  Structure-of-arrays (SoA) optimization enabled

  Input XML = qmc.dump.qmc.in-wfj.xml

  Project = qmc.dump
  date    = 2020-09-05 19:28:23 PDT
  host    = nid03925

 Random Number
 -------------
  Offset for the random number seeds based on time: 327

  Range of prime numbers to use as seeds over processors and threads = 2207-22381


 Particle Set 
 ------------
  Name: ion0
  All the species have the same mass 1
  Particle set size: 5

 Particle Set 
 ------------
  Name: e
  All the species have the same mass 1
  Particle set size: 8

 Wavefunction setup: 
 ------------------- 
  Name: psi0
  LCAO: SoaAtomicBasisSet<MultiQuintic,0>
Reading BasisSet from HDF5 file:qmc.dump.orbs.h5
<input node="atomicBasisSet" name="Gaussian" expandYlm="Gamess" angular="cartesian" elementType="Si" normalized="no" type="Numerical" expM="0" />
  AO BasisSet for Si
   Angular momentum expanded in cartesian functions x^lx y^ly z^lz according to Gamess
   Grid is created by the input paremters in h5
    Using log grid ri = 1e-06 rf = 100 npts = 1001
   R(n,l,m,s) 0 0 0 0
   R(n,l,m,s) 1 0 0 0
   R(n,l,m,s) 2 0 0 0
   R(n,l,m,s) 3 0 0 0
   R(n,l,m,s) 4 0 0 0
   R(n,l,m,s) 5 1 0 0
   R(n,l,m,s) 6 1 0 0
   R(n,l,m,s) 7 1 0 0
   R(n,l,m,s) 8 1 0 0
   R(n,l,m,s) 9 1 0 0
   R(n,l,m,s) 10 2 0 0
   R(n,l,m,s) 11 2 0 0
   R(n,l,m,s) 12 2 0 0
   R(n,l,m,s) 13 2 0 0
   R(n,l,m,s) 14 3 0 0
   R(n,l,m,s) 15 3 0 0
   R(n,l,m,s) 16 3 0 0
   R(n,l,m,s) 17 4 0 0
   R(n,l,m,s) 18 4 0 0
Expanding Ylm (angular function) according to Gamess using cartesian gaussians
Adding 1 cartesian gaussian orbitals for l= 0
Adding 1 cartesian gaussian orbitals for l= 0
Adding 1 cartesian gaussian orbitals for l= 0
Adding 1 cartesian gaussian orbitals for l= 0
Adding 1 cartesian gaussian orbitals for l= 0
Adding 3 cartesian gaussian orbitals for l= 1
Adding 3 cartesian gaussian orbitals for l= 1
Adding 3 cartesian gaussian orbitals for l= 1
Adding 3 cartesian gaussian orbitals for l= 1
Adding 3 cartesian gaussian orbitals for l= 1
Adding 6 cartesian gaussian orbitals for l= 2
Adding 6 cartesian gaussian orbitals for l= 2
Adding 6 cartesian gaussian orbitals for l= 2
Adding 6 cartesian gaussian orbitals for l= 2
Adding 10 cartesian gaussian orbitals for l= 3
Adding 10 cartesian gaussian orbitals for l= 3
Adding 10 cartesian gaussian orbitals for l= 3
Adding 15 cartesian gaussian orbitals for l= 4
Adding 15 cartesian gaussian orbitals for l= 4
  Setting cutoff radius 8.64717e+15

   Maximum Angular Momentum  = 4
   Number of Radial functors = 19
   Basis size                = 104

<input node="atomicBasisSet" name="Gaussian" expandYlm="Gamess" angular="cartesian" elementType="H" normalized="no" type="Numerical" expM="0" />
  AO BasisSet for H
   Angular momentum expanded in cartesian functions x^lx y^ly z^lz according to Gamess
   Grid is created by the input paremters in h5
    Using log grid ri = 1e-06 rf = 100 npts = 1001
   R(n,l,m,s) 0 0 0 0
   R(n,l,m,s) 1 0 0 0
   R(n,l,m,s) 2 0 0 0
   R(n,l,m,s) 3 0 0 0
   R(n,l,m,s) 4 0 0 0
   R(n,l,m,s) 5 1 0 0
   R(n,l,m,s) 6 1 0 0
   R(n,l,m,s) 7 1 0 0
   R(n,l,m,s) 8 1 0 0
   R(n,l,m,s) 9 2 0 0
   R(n,l,m,s) 10 2 0 0
   R(n,l,m,s) 11 2 0 0
   R(n,l,m,s) 12 3 0 0
   R(n,l,m,s) 13 3 0 0
Expanding Ylm (angular function) according to Gamess using cartesian gaussians
Adding 1 cartesian gaussian orbitals for l= 0
Adding 1 cartesian gaussian orbitals for l= 0
Adding 1 cartesian gaussian orbitals for l= 0
Adding 1 cartesian gaussian orbitals for l= 0
Adding 1 cartesian gaussian orbitals for l= 0
Adding 3 cartesian gaussian orbitals for l= 1
Adding 3 cartesian gaussian orbitals for l= 1
Adding 3 cartesian gaussian orbitals for l= 1
Adding 3 cartesian gaussian orbitals for l= 1
Adding 6 cartesian gaussian orbitals for l= 2
Adding 6 cartesian gaussian orbitals for l= 2
Adding 6 cartesian gaussian orbitals for l= 2
Adding 10 cartesian gaussian orbitals for l= 3
Adding 10 cartesian gaussian orbitals for l= 3
  Setting cutoff radius 9.95675e+11

   Maximum Angular Momentum  = 3
   Number of Radial functors = 14
   Basis size                = 55

  Created SPOSet builder named 'LCAOBSet' of type molecularorbital
Creating SPOSet in SlaterDetBuilder::put(xmlNodePtr cur).
spo_name = spo-up
  Building SPOSet 'spo-up' with 'LCAOBSet' basis set.
Creating SPOSet in SlaterDetBuilder::put(xmlNodePtr cur).
spo_name = spo-dn
  Building SPOSet 'spo-dn' with 'LCAOBSet' basis set.
Using Bryan's algorithm for MultiSlaterDeterminant expansion. 
Creating base determinant (up) for MSD expansion. 
Creating base determinant (down) for MSD expansion. 
Found Multideterminants in H5 File
Found determinant list. 
Reading CI expansion from HDF5:qmc.dump.orbs.h5
 Done reading CIs from H5!!
 Sorting unique CIs
 Done Sorting unique CIs
Found 360162 terms in the MSD expansion.
Norm of ci vector (sum of ci^2): 1
Found 27171 unique up determinants.
Found 27171 unique down determinants.
Number of terms in pairs array: 1036
Number of terms in pairs array: 1036
CI coefficients are not optimizable. 
  Added a fermionic WaveFunctionComponent SlaterDet

   Jastrow
   -------
    Name: J2   Type: Two-Body   Function: Bspline

    Radial function for species: u - u
     Number of parameters: 10
     Cusp: -0.25
     Cutoff radius: 10

     Name                        Value Type Recompute Use Index
     ---- ---------------------------- ---- --------- --- -----
     uu_0                 2.541445e-01    1         1  ON     0
     uu_1                 1.070467e-01    1         1  ON     1
     uu_2                 4.657433e-02    1         1  ON     2
     uu_3                 2.224841e-02    1         1  ON     3
     uu_4                 1.361627e-02    1         1  ON     4
     uu_5                 3.622004e-03    1         1  ON     5
     uu_6                -8.272579e-03    1         1  ON     6
     uu_7                -1.609044e-02    1         1  ON     7
     uu_8                -1.860566e-02    1         1  ON     8
     uu_9                -2.049047e-02    1         1  ON     9

    Radial function for species: u - d
     Number of parameters: 10
     Cusp: -0.5
     Cutoff radius: 10

     Name                        Value Type Recompute Use Index
     ---- ---------------------------- ---- --------- --- -----
     ud_0                 2.718556e-01    1         1  ON     0
     ud_1                 8.270216e-02    1         1  ON     1
     ud_2                 2.678985e-02    1         1  ON     2
     ud_3                 9.609974e-03    1         1  ON     3
     ud_4                -1.875641e-03    1         1  ON     4
     ud_5                -9.804985e-03    1         1  ON     5
     ud_6                -1.813055e-02    1         1  ON     6
     ud_7                -2.380376e-02    1         1  ON     7
     ud_8                -2.627600e-02    1         1  ON     8
     ud_9                -2.693676e-02    1         1  ON     9


   Jastrow
   -------
    Name: J1   Type: One-Body   Function: Bspline

    Radial function for element: Si
     Number of parameters: 10
     Cusp: 0
     Cutoff radius: 10

      Name                        Value Type Recompute Use Index
     ----- ---------------------------- ---- --------- --- -----
     eSi_0                -9.157645e-02    1         1  ON     0
     eSi_1                -3.994578e-02    1         1  ON     1
     eSi_2                -2.299116e-02    1         1  ON     2
     eSi_3                -3.208622e-03    1         1  ON     3
     eSi_4                 1.019192e-02    1         1  ON     4
     eSi_5                 4.967159e-04    1         1  ON     5
     eSi_6                -2.712516e-02    1         1  ON     6
     eSi_7                -3.932180e-02    1         1  ON     7
     eSi_8                -3.867140e-02    1         1  ON     8
     eSi_9                 4.270421e-02    1         1  ON     9

    Radial function for element: H
     Number of parameters: 10
     Cusp: 0
     Cutoff radius: 10

     Name                        Value Type Recompute Use Index
     ---- ---------------------------- ---- --------- --- -----
     eH_0                -1.248065e-01    1         1  ON     0
     eH_1                -1.334096e-01    1         1  ON     1
     eH_2                -1.219322e-01    1         1  ON     2
     eH_3                -9.796760e-02    1         1  ON     3
     eH_4                -7.130425e-02    1         1  ON     4
     eH_5                -6.236872e-02    1         1  ON     5
     eH_6                -4.349649e-02    1         1  ON     6
     eH_7                -1.685044e-02    1         1  ON     7
     eH_8                 1.840331e-04    1         1  ON     8
     eH_9                 9.591951e-03    1         1  ON     9


   Jastrow
   -------
    Name: J3   Type: eeI   Function: polynomial

     Ion: Si   electron-electron: u - u
      Number of parameters for e-e: 3, for e-I: 3
      Cutoff radius: 10

         Name                        Value Type Recompute Use Index
      ------- ---------------------------- ---- --------- --- -----
       uuSi_0                -3.758652e-05    1         1  ON     0
       uuSi_1                -2.057547e-05    1         1  ON     1
       uuSi_2                 8.916296e-06    1         1  ON     2
       uuSi_3                 4.999451e-05    1         1  ON     3
       uuSi_4                 6.815025e-06    1         1  ON     4
       uuSi_5                -2.313236e-06    1         1  ON     5
       uuSi_6                 2.422699e-05    1         1  ON     6
       uuSi_7                 1.303590e-05    1         1  ON     7
       uuSi_8                -3.527437e-05    1         1  ON     8
       uuSi_9                 2.101865e-05    1         1  ON     9
      uuSi_10                 2.515630e-05    1         1  ON    10
      uuSi_11                 6.471290e-06    1         1  ON    11
      uuSi_12                 1.060101e-05    1         1  ON    12
      uuSi_13                -7.689245e-05    1         1  ON    13
      uuSi_14                -1.251682e-05    1         1  ON    14
      uuSi_15                 1.953256e-07    1         1  ON    15
      uuSi_16                 1.142635e-05    1         1  ON    16
      uuSi_17                -7.142867e-05    1         1  ON    17
      uuSi_18                 5.535525e-06    1         1  ON    18
      uuSi_19                -3.385949e-06    1         1  ON    19
      uuSi_20                 2.682143e-05    1         1  ON    20
      uuSi_21                 1.767537e-06    1         1  ON    21
      uuSi_22                -4.525760e-08    1         1  ON    22
      uuSi_23                -6.860660e-06    1         1  ON    23
      uuSi_24                -1.049692e-07    1         1  ON    24
      uuSi_25                 3.259256e-08    1         1  ON    25

     Ion: Si   electron-electron: u - d
      Number of parameters for e-e: 3, for e-I: 3
      Cutoff radius: 10

         Name                        Value Type Recompute Use Index
      ------- ---------------------------- ---- --------- --- -----
       udSi_0                 2.256501e-06    1         1  ON     0
       udSi_1                 4.626917e-05    1         1  ON     1
       udSi_2                 5.698738e-06    1         1  ON     2
       udSi_3                -8.787752e-06    1         1  ON     3
       udSi_4                -2.895703e-06    1         1  ON     4
       udSi_5                -3.881994e-06    1         1  ON     5
       udSi_6                 7.866023e-05    1         1  ON     6
       udSi_7                -2.708581e-05    1         1  ON     7
       udSi_8                -2.605459e-06    1         1  ON     8
       udSi_9                -5.248277e-05    1         1  ON     9
      udSi_10                -1.198106e-05    1         1  ON    10
      udSi_11                 1.451868e-05    1         1  ON    11
      udSi_12                -7.221912e-08    1         1  ON    12
      udSi_13                 9.483147e-06    1         1  ON    13
      udSi_14                -1.892801e-06    1         1  ON    14
      udSi_15                 1.081433e-07    1         1  ON    15
      udSi_16                 4.913859e-05    1         1  ON    16
      udSi_17                 9.888422e-07    1         1  ON    17
      udSi_18                -9.108946e-06    1         1  ON    18
      udSi_19                 6.052901e-07    1         1  ON    19
      udSi_20                -8.702418e-06    1         1  ON    20
      udSi_21                 1.534168e-06    1         1  ON    21
      udSi_22                -1.437417e-07    1         1  ON    22
      udSi_23                 1.802931e-06    1         1  ON    23
      udSi_24                -2.867646e-07    1         1  ON    24
      udSi_25                 2.946065e-08    1         1  ON    25

     Ion: H   electron-electron: u - u
      Number of parameters for e-e: 3, for e-I: 3
      Cutoff radius: 10

        Name                        Value Type Recompute Use Index
      ------ ---------------------------- ---- --------- --- -----
       uuH_0                -4.587134e-06    1         1  ON     0
       uuH_1                -1.821592e-05    1         1  ON     1
       uuH_2                -2.002873e-06    1         1  ON     2
       uuH_3                 5.839437e-06    1         1  ON     3
       uuH_4                -1.435798e-07    1         1  ON     4
       uuH_5                 1.857087e-06    1         1  ON     5
       uuH_6                -2.465764e-05    1         1  ON     6
       uuH_7                 1.866126e-05    1         1  ON     7
       uuH_8                 7.428557e-07    1         1  ON     8
       uuH_9                 1.870388e-05    1         1  ON     9
      uuH_10                 1.987284e-06    1         1  ON    10
      uuH_11                -6.489845e-06    1         1  ON    11
      uuH_12                -5.590400e-07    1         1  ON    12
      uuH_13                -8.652746e-06    1         1  ON    13
      uuH_14                 1.196596e-06    1         1  ON    14
      uuH_15                -4.872628e-08    1         1  ON    15
      uuH_16                -1.452663e-05    1         1  ON    16
      uuH_17                -4.241120e-06    1         1  ON    17
      uuH_18                 5.395741e-06    1         1  ON    18
      uuH_19                -1.110271e-08    1         1  ON    19
      uuH_20                 5.534096e-06    1         1  ON    20
      uuH_21                -1.278816e-06    1         1  ON    21
      uuH_22                 1.207002e-07    1         1  ON    22
      uuH_23                -1.252982e-06    1         1  ON    23
      uuH_24                 2.940331e-07    1         1  ON    24
      uuH_25                -4.156249e-08    1         1  ON    25

     Ion: H   electron-electron: u - d
      Number of parameters for e-e: 3, for e-I: 3
      Cutoff radius: 10

        Name                        Value Type Recompute Use Index
      ------ ---------------------------- ---- --------- --- -----
       udH_0                -2.561966e-06    1         1  ON     0
       udH_1                 3.103752e-06    1         1  ON     1
       udH_2                -2.332500e-06    1         1  ON     2
       udH_3                 6.945198e-06    1         1  ON     3
       udH_4                 9.633822e-07    1         1  ON     4
       udH_5                -3.154760e-06    1         1  ON     5
       udH_6                 2.124373e-05    1         1  ON     6
       udH_7                -2.544575e-05    1         1  ON     7
       udH_8                -1.234201e-05    1         1  ON     8
       udH_9                -3.362637e-06    1         1  ON     9
      udH_10                 1.196309e-06    1         1  ON    10
      udH_11                 1.887604e-05    1         1  ON    11
      udH_12                 1.300573e-06    1         1  ON    12
      udH_13                -6.041846e-06    1         1  ON    13
      udH_14                -3.103134e-06    1         1  ON    14
      udH_15                 1.694824e-07    1         1  ON    15
      udH_16                 4.621002e-07    1         1  ON    16
      udH_17                -1.422927e-06    1         1  ON    17
      udH_18                -1.286952e-05    1         1  ON    18
      udH_19                 1.298741e-06    1         1  ON    19
      udH_20                 3.136228e-06    1         1  ON    20
      udH_21                 1.822675e-06    1         1  ON    21
      udH_22                -3.024172e-07    1         1  ON    22
      udH_23                -1.086330e-06    1         1  ON    23
      udH_24                -2.004455e-07    1         1  ON    24
      udH_25                 4.850544e-08    1         1  ON    25

  QMCHamiltonian::addOperator Kinetic to H, physical Hamiltonian 
  QMCHamiltonian::addOperator ElecElec to H, physical Hamiltonian 
QMCHamiltonian::addOperatorType added type coulomb named ElecElec
  QMCHamiltonian::addOperator IonIon to H, physical Hamiltonian 
QMCHamiltonian::addOperatorType added type coulomb named IonIon

  ECPotential builder for pseudopotential 

  Adding pseudopotential for H
   Linear grid  ri=0 rf=10 npts = 10001
    ECPComponentBuilder::buildSemiLocalAndLocal 
    Assuming Hartree unit
   Number of angular momentum channels 2
   Maximum angular momentum channel 1
   Creating a Linear Grid Rmax=1e-10
  Using global grid with delta = 0.001
   Making L=1 a local potential with a radial cutoff of 9.999
    Non-local pseudopotential parameters
    Maximum angular mementum = 0
    Number of non-local channels = 1
       l(0)=0
    Cutoff radius = 0.001
    Spherical grids and weights: 
                        1                 0                 0       0.08333333333
                       -1   1.224646799e-16                 0       0.08333333333
             0.4472135955       0.894427191                 0       0.08333333333
            -0.4472135955      0.7236067977      0.5257311121       0.08333333333
             0.4472135955      0.2763932023      0.8506508084       0.08333333333
            -0.4472135955     -0.2763932023      0.8506508084       0.08333333333
             0.4472135955     -0.7236067977      0.5257311121       0.08333333333
            -0.4472135955      -0.894427191   1.095357397e-16       0.08333333333
             0.4472135955     -0.7236067977     -0.5257311121       0.08333333333
            -0.4472135955     -0.2763932023     -0.8506508084       0.08333333333
             0.4472135955      0.2763932023     -0.8506508084       0.08333333333
            -0.4472135955      0.7236067977     -0.5257311121       0.08333333333
    Maximum cutoff radius 0.001

  Adding pseudopotential for Si
   Linear grid  ri=0 rf=10 npts = 10001
    ECPComponentBuilder::buildSemiLocalAndLocal 
    Assuming Hartree unit
   Number of angular momentum channels 3
   Maximum angular momentum channel 2
   Creating a Linear Grid Rmax=2.69
  Using global grid with delta = 0.001
   Making L=2 a local potential with a radial cutoff of 9.999
    Non-local pseudopotential parameters
    Maximum angular mementum = 1
    Number of non-local channels = 2
       l(0)=0
       l(1)=1
    Cutoff radius = 2.69
    Spherical grids and weights: 
                        1                 0                 0       0.08333333333
                       -1   1.224646799e-16                 0       0.08333333333
             0.4472135955       0.894427191                 0       0.08333333333
            -0.4472135955      0.7236067977      0.5257311121       0.08333333333
             0.4472135955      0.2763932023      0.8506508084       0.08333333333
            -0.4472135955     -0.2763932023      0.8506508084       0.08333333333
             0.4472135955     -0.7236067977      0.5257311121       0.08333333333
            -0.4472135955      -0.894427191   1.095357397e-16       0.08333333333
             0.4472135955     -0.7236067977     -0.5257311121       0.08333333333
            -0.4472135955     -0.2763932023     -0.8506508084       0.08333333333
             0.4472135955      0.2763932023     -0.8506508084       0.08333333333
            -0.4472135955      0.7236067977     -0.5257311121       0.08333333333
    Maximum cutoff radius 2.69
  QMCHamiltonian::addOperator LocalECP to H, physical Hamiltonian 

  Using NonLocalECP potential 
    Maximum grid on a sphere for NonLocalECPotential: 12
  QMCHamiltonian::addOperator NonLocalECP to H, physical Hamiltonian 
QMCHamiltonian::addOperatorType added type pseudo named PseudoPot

  QMCHamiltonian::add2WalkerProperty added
    5 to P::PropertyList 
    0 to P::Collectables 
    starting Index of the observables in P::PropertyList = 9
ParticleSetPool::randomize 1 ParticleSet.
<init source="ion0" target="e">
</init>
  Initialization Execution time = 7.857 secs
=========================================================
 Summary of QMC systems 
=========================================================
ParticleSetPool has: 

  ParticleSet 'e' contains 8 particles :  u(4) d(4)

    u -2.0107891510e-01 -1.0638097715e+00  2.8138209276e-01
    u -1.0749721545e+00  3.0911626691e-01  1.3484904837e-02
    u  1.2474476366e+00  2.6336306642e+00  1.8939595429e+00
    u -2.1628988954e+00  1.0787309615e+00 -8.0001937533e-01
    d  9.3566404669e-01 -1.3211991199e-01 -5.9864594104e-01
    d  7.6866906919e-01 -1.8274533800e-01  7.9186605284e-01
    d -2.7292296842e+00 -1.6989881186e+00  1.6562438523e+00
    d  2.5855001589e+00 -1.1418107988e+00 -1.3228541890e+00

  Distance table for dissimilar particles (A-B):
    source: ion0  target: e
    Using structure-of-arrays (SoA) data layout
    Distance computations use open boundary conditions in 3D.

  Distance table for similar particles (A-A):
    source/target: e
    Using structure-of-arrays (SoA) data layout
    Distance computations use open boundary conditions in 3D.


  ParticleSet 'ion0' contains 5 particles :  Si(1) H(4)

    Si  0.0000000000e+00  0.0000000000e+00  0.0000000000e+00
    H  1.6145818874e+00  1.6145818874e+00  1.6145818874e+00
    H -1.6145818874e+00 -1.6145818874e+00  1.6145818874e+00
    H -1.6145818874e+00  1.6145818874e+00 -1.6145818874e+00
    H  1.6145818874e+00 -1.6145818874e+00 -1.6145818874e+00

  Distance table for similar particles (A-A):
    source/target: ion0
    Using structure-of-arrays (SoA) data layout
    Distance computations use open boundary conditions in 3D.


  Hamiltonian h0
  Kinetic         Kinetic energy
  ElecElec        CoulombAB source=e

  IonIon          CoulombAA source/target ion0

  LocalECP        LocalECPotential: ion0
  NonLocalECP     NonLocalECPotential: ion0


=========================================================
  Start VMC
  File Root qmc.dump.s000 append = no 
=========================================================
Resetting walkers
  Adding 1 walkers to 0 existing sets
  Total number of walkers: 2.1760000000e+03
  Total weight: 2.1760000000e+03
  Resetting Properties of the walkers 1 x 14

<vmc function="put">
  qmc_counter=0  my_counter=0
  time step      = 5.0000000000e-01
  blocks         = 5
  steps          = 10
  substeps       = 5
  current        = 0
  target samples = 0.0000000000e+00
  walkers/mpi    = 1

  stepsbetweensamples = 60
  SpinMoves      = no
<parameter name="blocks" condition="int">5</parameter>
<parameter name="blocks_between_recompute" condition="int">0</parameter>
<parameter name="check_properties" condition="int">100</parameter>
<parameter name="checkproperties" condition="int">100</parameter>
<parameter name="current" condition="int">0</parameter>
<parameter name="dmcwalkersperthread" condition="real">0.0000000000e+00</parameter>
<parameter name="maxcpusecs" condition="real">3.6000000000e+05</parameter>
<parameter name="record_configs" condition="int">0</parameter>
<parameter name="record_walkers" condition="int">60</parameter>
<parameter name="recordconfigs" condition="int">0</parameter>
<parameter name="recordwalkers" condition="int">60</parameter>
<parameter name="rewind" condition="int">0</parameter>
<parameter name="samples" condition="real">0.0000000000e+00</parameter>
<parameter name="samplesperthread" condition="real">0.0000000000e+00</parameter>
<parameter name="spinmass" condition="double">1.0000000000e+00</parameter>
<parameter name="spinmoves" condition="string">no</parameter>
<parameter name="steps" condition="int">10</parameter>
<parameter name="stepsbetweensamples" condition="int">60</parameter>
<parameter name="store_configs" condition="int">0</parameter>
<parameter name="storeconfigs" condition="int">0</parameter>
<parameter name="sub_steps" condition="int">5</parameter>
<parameter name="substeps" condition="int">5</parameter>
<parameter name="tau" condition="au">5.0000000000e-01</parameter>
<parameter name="time_step" condition="au">5.0000000000e-01</parameter>
<parameter name="timestep" condition="au">5.0000000000e-01</parameter>
<parameter name="use_drift" condition="string">no</parameter>
<parameter name="usedrift" condition="string">no</parameter>
<parameter name="walkers" condition="int">1</parameter>
<parameter name="warmup_steps" condition="int">10</parameter>
<parameter name="warmupsteps" condition="int">10</parameter>
  DumpConfig==true Configurations are dumped to config.h5 with a period of 5 blocks
  Walker Samples are dumped every 60 steps.
</vmc>
  Set drift_modifier UNR parameter a = 1.0000000000e+00
  Initial partition of walkers 0 1 

  Using Particle by Particle moves
  Walker moves without drift
  Total Sample Size   =0
  Walker distribution on root = 0 1 
  Using Locality Approximation
===== Memory Usage after the buffer registration =====
Available memory on node 0, free + buffers : 83030 MB
Memory footprint by rank 0 on node 0       : 170 MB
==================================================
  Anonymous Buffer size per walker : 7478856 Bytes.
MEMORY increase 7 MB VMC::resetRun
====================================================
  SimpleFixedNodeBranch::finalize after a VMC block
    QMC counter        = 0
    time step          = 0.5
    reference energy   = -6.27335
    reference variance = 0.0442288
====================================================
  QMC Execution time = 3.6967e+01 secs
BRANCH resetRun
 SimpleFixedNodeBranch::resetRun detected changes in <parameter>'s 
 BranchMode : 0000001100 0000001100
 iParam (old): 10                1                 0                 0                 2176              2176              1                 0                 
 iParam (new): 10                1                 0                 8704              2176              2176              1                 0                 
 vParam (old): 5.0000000000e-01  5.0000000000e-01  -6.2733514135e+00 -6.2733514135e+00 1.0000000000e+00  1.0000000000e+00  1.0000000000e+00  1.0000000000e+00  4.4228817505e-02  -6.2733514135e+00 1.0000000000e+00  1.0000000000e+00  1.0000000000e+01  1.0000000000e+00  1.0000000000e+00  1.0000000000e+00  1.0000000000e+00  
 vParam (new): 1.0000000000e-02  5.0000000000e-01  -6.2733514135e+00 -6.2733514135e+00 1.0000000000e+00  1.0000000000e+00  1.0000000000e+00  1.0000000000e+00  4.4228817505e-02  -6.2733514135e+00 1.0000000000e+00  1.0000000000e+00  1.0000000000e+01  1.0000000000e+00  1.0000000000e+00  1.0000000000e+00  1.0000000000e+00  

=========================================================
  Start DMC
  File Root qmc.dump.s001 append = no 
=========================================================
Using existing walkers 
  Resetting Properties of the walkers 1 x 14
  Set drift_modifier UNR parameter a = 1.0000000000e+00
  EstimatorManagerBase::add replace LocalEnergy estimator.
  Cannot make clones again. Use existing 1 clones
  Total number of walkers: 2.1760000000e+03
  Total weight: 2.1760000000e+03
  Creating WalkerController: target  number of walkers = 8704
  Using WalkerControlMPI for dynamic population control.
  START ALL OVER 
  WalkerControlBase parameters 
    maxCopy = 2
    Max Walkers per MPI rank 9
    Min Walkers per MPI rank 1
    Using non-blocking send/recv
  QMC counter      = 1
  time step        = 1.0000000000e-02
  effective time step = 1.0000000000e-02
  trial energy     = -6.2733514135e+00
  reference energy = -6.2733514135e+00
  Feedback = 1.0000000000e+00
  reference variance = 4.4228817505e-02
  target walkers = 8704
  branching cutoff scheme classic
  branch cutoff = 5.0000000000e+01 7.5000000000e+01
  Max and minimum walkers per node= 9 1
  QMC Status (BranchMode) = 0000001101
  Total number of walkers: 8.7040000000e+03
  Total weight: 8.7040000000e+03
  Initial partition of walkers on a node: 0 4 
  Updates by particle-by-particle moves
  DMC moves are rejected when a node crossing is detected
  Using Non-local T-moves v1, M. Casula et al., JCP 132, 154113 (2010)
===== Memory Usage after the buffer registration =====
Available memory on node 0, free + buffers : 83067 MB
Memory footprint by rank 0 on node 0       : 176 MB
==================================================
SimpleFixedNodeBranch::checkParameters 
  Average Energy of a population  = -6.27345
  Energy Variance = 0.0442826

  Fluctuating population
  Persistent walkers are killed after 1 MC sweeps
  BranchInterval = 1
  Steps per block = 20
  Number of blocks = 5

  DMC Engine Initialization = 4.5630080700e+00 secs

 Warmup is completed after 10

  TauEff     = 9.9804856948e-03
 TauEff/Tau = 9.9804856948e-01
  Etrial     = -6.3219530882e+00
 Running average of energy = -6.2746266829e+00
                  Variance = 5.6090305534e-02
branch cutoff = 1.0000000000e+01 1.5000000000e+01
====================================================
  SimpleFixedNodeBranch::finalize after a DMC block
    QMC counter                   = 1
    time step                     = 0.01
    effective time step           = 0.00998183
    trial energy                  = -6.27403
    reference energy              = -6.2761
    reference variance            = 0.0560903
    target walkers                = 8704
    branch cutoff                 = 10 15
    Max and minimum walkers per node= 9 1
    Feedback                      = 1
    QMC Status (BranchMode)       = 0000001111
====================================================
  QMC Execution time = 4.3790e+02 secs
BRANCH resetRun
 SimpleFixedNodeBranch::resetRun detected changes in <parameter>'s 
 BranchMode : 0000001111 0000001111
  WalkerControlBase parameters 
    maxCopy = 2
    Max Walkers per MPI rank 9
    Min Walkers per MPI rank 1
    Using non-blocking send/recv
 iParam (old): 0                 1                 1                 8704              9                 1                 1                 0                 
 iParam (new): 100               1                 1                 8704              9                 1                 1                 0                 
 vParam (old): 1.0000000000e-02  9.9818320464e-03  -6.2740272011e+00 -6.2760973571e+00 -6.2771135660e+00 1.5000000000e+01  1.0000000000e+01  2.0000000000e-01  5.6090305534e-02  -5.7112587571e+02 9.1000000000e+01  1.0000000000e+00  1.0000000000e+01  1.0000000000e+00  1.0000000000e+00  1.0000000000e+00  1.0000000000e+00  
 vParam (new): 1.0000000000e-03  9.9818320464e-03  -6.2740272011e+00 -6.2760973571e+00 -6.2771135660e+00 1.5000000000e+01  1.0000000000e+01  2.0000000000e-01  5.6090305534e-02  -5.7112587571e+02 9.1000000000e+01  1.0000000000e+00  1.0000000000e+01  1.0000000000e+00  1.0000000000e+00  1.0000000000e+00  1.0000000000e+00  

 Using branching cutoff scheme classic

=========================================================
  Start DMC
  File Root qmc.dump.s002 append = no 
=========================================================
Using existing walkers 
  Resetting Properties of the walkers 1 x 14
  Set drift_modifier UNR parameter a = 1.0000000000e+00
  EstimatorManagerBase::add replace LocalEnergy estimator.
  Cannot make clones again. Use existing 1 clones
  Total number of walkers: 8.6860000000e+03
  Total weight: 8.6860000000e+03
  WalkerControlBase parameters 
    maxCopy = 2
    Max Walkers per MPI rank 9
    Min Walkers per MPI rank 1
    Using non-blocking send/recv
  QMC counter      = 2
  time step        = 1.0000000000e-03
  effective time step = 9.9818320464e-03
  trial energy     = -6.2740272011e+00
  reference energy = -6.2760973571e+00
  Feedback = 1.0000000000e+00
  reference variance = 5.6090305534e-02
  target walkers = 8704
  branching cutoff scheme classic
  branch cutoff = 1.0000000000e+01 1.5000000000e+01
  Max and minimum walkers per node= 9 1
  QMC Status (BranchMode) = 0000001101
  Initial partition of walkers on a node: 0 3 
  Updates by particle-by-particle moves
  DMC moves are rejected when a node crossing is detected
  Using Non-local T-moves v1, M. Casula et al., JCP 132, 154113 (2010)
===== Memory Usage after the buffer registration =====
Available memory on node 0, free + buffers : 81734 MB
Memory footprint by rank 0 on node 0       : 192 MB
==================================================
SimpleFixedNodeBranch::checkParameters 
  Average Energy of a population  = -6.27741
  Energy Variance = 0.0600865

  Fluctuating population
  Persistent walkers are killed after 1 MC sweeps
  BranchInterval = 1
  Steps per block = 1000
  Number of blocks = 1000

  DMC Engine Initialization = 2.7245950699e+00 secs

 Warmup is completed after 100

  TauEff     = 9.9993817478e-04
 TauEff/Tau = 9.9993817478e-01
  Etrial     = -6.2790702758e+00
 Running average of energy = -6.2766717710e+00
                  Variance = 6.0001820881e-02
branch cutoff = 1.0000000000e+01 1.5000000000e+01
